559
Lattice="40.051199999999994 0.0 0.0 0.0 40.051199999999994 0.0 0.0 0.0 40.051199999999994" Properties=species:S:1:pos:R:3:spacegroup_kinds:I:1:energies:R:1:forces:R:3 energy=128.31574423700414 free_energy=128.31574423700414 stress="2.186946773811175e-05 -2.1147541461655636e-16 2.720826067247464e-16 -2.1147541461655636e-16 2.186946773813072e-05 -1.4489598095026e-16 2.720826067247464e-16 -1.4489598095026e-16 2.1869467738119605e-05" pbc="T T T"
Au      -9.11833409      -9.11833409      -9.11833409        0       0.64967501      -0.01194499      -0.01194499      -0.01194499
Au      -7.60096894      -7.60096894      -7.60096894        0       0.38057971      -0.00959848      -0.00959848      -0.00959848
Au      -9.30630453      -9.30630453      -6.45573262        0       0.54356187      -0.00029842      -0.00029842       0.00397617
Au      -7.83207329      -7.83207329      -4.78863369        0       0.15187261       0.00746950       0.00746950      -0.00644044
Au      -9.33098545      -9.33098545      -3.16950616        0       0.57765521       0.00592775       0.00592775      -0.01392996
Au      -7.83305441      -7.83305441      -1.60045500        0       0.19993382      -0.00067128      -0.00067128      -0.00795540
Au      -9.30630453      -6.45573262      -9.30630453        0       0.54356187      -0.00029842       0.00397617      -0.00029842
Au      -7.83207329      -4.78863369      -7.83207329        0       0.15187261       0.00746950      -0.00644044       0.00746950
Au      -9.71064576      -6.42801263      -6.42801263        0       0.38030745       0.01268963      -0.00400236      -0.00400236
Au      -8.24304888      -4.81089251      -4.81089251        0       0.09300848      -0.00246407       0.01409926       0.01409926
Au      -9.66804396      -6.58383880      -3.22352790        0       0.39515524       0.00316186      -0.00360074      -0.00522349
Au      -8.18543260      -4.91440246      -1.62071673        0       0.10468966      -0.01282242      -0.00608148       0.00626798
Au      -9.33098545      -3.16950616      -9.33098545        0       0.57765521       0.00592775      -0.01392996       0.00592775
Au      -7.83305441      -1.60045500      -7.83305441        0       0.19993382      -0.00067128      -0.00795540      -0.00067128
Au      -9.66804396      -3.22352790      -6.58383880        0       0.39515524       0.00316186      -0.00522349      -0.00360074
Au      -8.18543260      -1.62071673      -4.91440246        0       0.10468966      -0.01282242       0.00626798      -0.00608148
Au      -9.60632040      -3.15563009      -3.15563009        0       0.40064420      -0.00038175       0.02162903       0.02162903
Au      -8.15283832      -1.55508703      -1.55508703        0       0.12561730       0.01364820       0.00224137       0.00224137
Au      -6.45573262      -9.30630453      -9.30630453        0       0.54356187       0.00397617      -0.00029842      -0.00029842
Au      -4.78863369      -7.83207329      -7.83207329        0       0.15187261      -0.00644044       0.00746950       0.00746950
Au      -6.42801263      -9.71064576      -6.42801263        0       0.38030745      -0.00400236       0.01268963      -0.00400236
Au      -4.81089251      -8.24304888      -4.81089251        0       0.09300848       0.01409926      -0.00246407       0.01409926
Au      -6.58383880      -9.66804396      -3.22352790        0       0.39515524      -0.00360074       0.00316186      -0.00522349
Au      -4.91440246      -8.18543260      -1.62071673        0       0.10468966      -0.00608148      -0.01282242       0.00626798
Au      -6.42801263      -6.42801263      -9.71064576        0       0.38030745      -0.00400236      -0.00400236       0.01268963
Au      -4.81089251      -4.81089251      -8.24304888        0       0.09300848       0.01409926       0.01409926      -0.00246407
Au      -6.04604129      -6.04604129      -6.04604129        0       0.09249799      -0.02003127      -0.02003127      -0.02003127
Au      -4.51402123      -4.51402123      -4.51402123        0       0.13537566       0.00905776       0.00905776       0.00905776
Au      -6.24530839      -6.24530839      -3.20002578        0       0.02357756       0.00280030       0.00280030       0.00142986
Au      -4.68557811      -4.68557811      -1.59226251        0       0.04217071      -0.00469583      -0.00469583      -0.02883862
Au      -6.58383880      -3.22352790      -9.66804396        0       0.39515524      -0.00360074      -0.00522349       0.00316186
Au      -4.91440246      -1.62071673      -8.18543260        0       0.10468966      -0.00608148       0.00626798      -0.01282242
Au      -6.24530839      -3.20002578      -6.24530839        0       0.02357756       0.00280030       0.00142986       0.00280030
Au      -4.68557811      -1.59226251      -4.68557811        0       0.04217071      -0.00469583      -0.02883862      -0.00469583
Au      -6.61513167      -3.20278062      -3.20278062        0       0.00777186      -0.00245369      -0.00209834      -0.00209834
Au      -4.96320800      -1.62309761      -1.62309761        0       0.02476943      -0.01208691       0.00415496       0.00415496
Au      -3.16950616      -9.33098545      -9.33098545        0       0.57765521      -0.01392996       0.00592775       0.00592775
Au      -1.60045500      -7.83305441      -7.83305441        0       0.19993382      -0.00795540      -0.00067128      -0.00067128
Au      -3.22352790      -9.66804396      -6.58383880        0       0.39515524      -0.00522349       0.00316186      -0.00360074
Au      -1.62071673      -8.18543260      -4.91440246        0       0.10468966       0.00626798      -0.01282242      -0.00608148
Au      -3.15563009      -9.60632040      -3.15563009        0       0.40064420       0.02162903      -0.00038175       0.02162903
Au      -1.55508703      -8.15283832      -1.55508703        0       0.12561730       0.00224137       0.01364820       0.00224137
Au      -3.22352790      -6.58383880      -9.66804396        0       0.39515524      -0.00522349      -0.00360074       0.00316186
Au      -1.62071673      -4.91440246      -8.18543260        0       0.10468966       0.00626798      -0.00608148      -0.01282242
Au      -3.20002578      -6.24530839      -6.24530839        0       0.02357756       0.00142986       0.00280030       0.00280030
Au      -1.59226251      -4.68557811      -4.68557811        0       0.04217071      -0.02883862      -0.00469583      -0.00469583
Au      -3.20278062      -6.61513167      -3.20278062        0       0.00777186      -0.00209834      -0.00245369      -0.00209834
Au      -1.62309761      -4.96320800      -1.62309761        0       0.02476943       0.00415496      -0.01208691       0.00415496
Au      -3.15563009      -3.15563009      -9.60632040        0       0.40064420       0.02162903       0.02162903      -0.00038175
Au      -1.55508703      -1.55508703      -8.15283832        0       0.12561730       0.00224137       0.00224137       0.01364820
Au      -3.20278062      -3.20278062      -6.61513167        0       0.00777186      -0.00209834      -0.00209834      -0.00245369
Au      -1.62309761      -1.62309761      -4.96320800        0       0.02476943       0.00415496       0.00415496      -0.01208691
Au      -2.99860350      -2.99860350      -2.99860350        0       0.17587187      -0.01691715      -0.01691715      -0.01691715
Au      -1.50102129      -1.50102129      -1.50102129        0       0.14961827       0.01945509       0.01945509       0.01945509
Au      -9.33388339      -9.33388339       0.00000000        0       0.56345124       0.01282095       0.01282095       0.00000000
Au      -7.83305441      -7.83305441       1.60045500        0       0.19993382      -0.00067128      -0.00067128       0.00795540
Au      -9.33098545      -9.33098545       3.16950616        0       0.57765521       0.00592775       0.00592775       0.01392996
Au      -7.83207329      -7.83207329       4.78863369        0       0.15187261       0.00746950       0.00746950       0.00644044
Au      -9.30630453      -9.30630453       6.45573262        0       0.54356187      -0.00029842      -0.00029842      -0.00397617
Au      -7.60096894      -7.60096894       7.60096894        0       0.38057971      -0.00959849      -0.00959849       0.00959849
Au      -9.11833409      -9.11833409       9.11833409        0       0.64967501      -0.01194499      -0.01194499       0.01194499
Au      -9.67145213      -6.58389991      -0.00000000        0       0.38752266       0.00334522       0.00217184       0.00000000
Au      -8.18543260      -4.91440246       1.62071673        0       0.10468966      -0.01282242      -0.00608148      -0.00626798
Au      -9.66804396      -6.58383880       3.22352790        0       0.39515524       0.00316186      -0.00360074       0.00522349
Au      -8.24304888      -4.81089251       4.81089251        0       0.09300848      -0.00246407       0.01409926      -0.01409926
Au      -9.71064576      -6.42801263       6.42801263        0       0.38030745       0.01268963      -0.00400236       0.00400236
Au      -7.83207329      -4.78863369       7.83207329        0       0.15187261       0.00746950      -0.00644044      -0.00746950
Au      -9.30630453      -6.45573262       9.30630453        0       0.54356187      -0.00029842       0.00397617       0.00029842
Au      -9.60347241      -3.26016772       0.00000000        0       0.38328663      -0.00165776       0.01986454      -0.00000000
Au      -8.15283832      -1.55508703       1.55508703        0       0.12561730       0.01364820       0.00224137      -0.00224137
Au      -9.60632040      -3.15563009       3.15563009        0       0.40064420      -0.00038175       0.02162903      -0.02162903
Au      -8.18543260      -1.62071673       4.91440246        0       0.10468966      -0.01282242       0.00626798       0.00608148
Au      -9.66804396      -3.22352790       6.58383880        0       0.39515524       0.00316186      -0.00522349       0.00360074
Au      -7.83305441      -1.60045500       7.83305441        0       0.19993382      -0.00067128      -0.00795540       0.00067128
Au      -9.33098545      -3.16950616       9.33098545        0       0.57765521       0.00592775      -0.01392996      -0.00592775
Au      -6.58389991      -9.67145213      -0.00000000        0       0.38752266       0.00217184       0.00334522       0.00000000
Au      -4.91440246      -8.18543260       1.62071673        0       0.10468966      -0.00608148      -0.01282242      -0.00626798
Au      -6.58383880      -9.66804396       3.22352790        0       0.39515524      -0.00360074       0.00316186       0.00522349
Au      -4.81089251      -8.24304888       4.81089251        0       0.09300848       0.01409926      -0.00246407      -0.01409926
Au      -6.42801263      -9.71064576       6.42801263        0       0.38030745      -0.00400236       0.01268963       0.00400236
Au      -4.78863369      -7.83207329       7.83207329        0       0.15187261      -0.00644044       0.00746950      -0.00746950
Au      -6.45573262      -9.30630453       9.30630453        0       0.54356187       0.00397617      -0.00029842       0.00029842
Au      -6.25468446      -6.25468446      -0.00000000        0       0.03704563       0.00946905       0.00946905       0.00000000
Au      -4.68557811      -4.68557811       1.59226251        0       0.04217071      -0.00469583      -0.00469583       0.02883862
Au      -6.24530839      -6.24530839       3.20002578        0       0.02357756       0.00280030       0.00280030      -0.00142986
Au      -4.51402123      -4.51402123       4.51402123        0       0.13537566       0.00905775       0.00905775      -0.00905775
Au      -6.04604129      -6.04604129       6.04604129        0       0.09249799      -0.02003127      -0.02003127       0.02003127
Au      -4.81089251      -4.81089251       8.24304888        0       0.09300848       0.01409926       0.01409926       0.00246407
Au      -6.42801263      -6.42801263       9.71064576        0       0.38030745      -0.00400236      -0.00400236      -0.01268963
Au      -6.56695077      -3.28244737      -0.00000000        0       0.00888928      -0.00177557      -0.00431389       0.00000000
Au      -4.96320800      -1.62309761       1.62309761        0       0.02476943      -0.01208691       0.00415496      -0.00415496
Au      -6.61513167      -3.20278062       3.20278062        0       0.00777186      -0.00245369      -0.00209834       0.00209834
Au      -4.68557811      -1.59226251       4.68557811        0       0.04217071      -0.00469583      -0.02883862       0.00469583
Au      -6.24530839      -3.20002578       6.24530839        0       0.02357756       0.00280030       0.00142986      -0.00280030
Au      -4.91440246      -1.62071673       8.18543260        0       0.10468966      -0.00608148       0.00626798       0.01282242
Au      -6.58383880      -3.22352790       9.66804396        0       0.39515524      -0.00360074      -0.00522349      -0.00316186
Au      -3.26016772      -9.60347241       0.00000000        0       0.38328663       0.01986454      -0.00165776      -0.00000000
Au      -1.55508703      -8.15283832       1.55508703        0       0.12561730       0.00224137       0.01364820      -0.00224137
Au      -3.15563009      -9.60632040       3.15563009        0       0.40064420       0.02162903      -0.00038175      -0.02162903
Au      -1.62071673      -8.18543260       4.91440246        0       0.10468966       0.00626798      -0.01282242       0.00608148
Au      -3.22352790      -9.66804396       6.58383880        0       0.39515524      -0.00522349       0.00316186       0.00360074
Au      -1.60045500      -7.83305441       7.83305441        0       0.19993382      -0.00795540      -0.00067128       0.00067128
Au      -3.16950616      -9.33098545       9.33098545        0       0.57765521      -0.01392996       0.00592775      -0.00592775
Au      -3.28244737      -6.56695077      -0.00000000        0       0.00888928      -0.00431389      -0.00177557       0.00000000
Au      -1.62309761      -4.96320800       1.62309761        0       0.02476943       0.00415496      -0.01208691      -0.00415496
Au      -3.20278062      -6.61513167       3.20278062        0       0.00777186      -0.00209834      -0.00245369       0.00209834
Au      -1.59226251      -4.68557811       4.68557811        0       0.04217071      -0.02883862      -0.00469583       0.00469583
Au      -3.20002578      -6.24530839       6.24530839        0       0.02357756       0.00142986       0.00280030      -0.00280030
Au      -1.62071673      -4.91440246       8.18543260        0       0.10468966       0.00626798      -0.00608148       0.01282242
Au      -3.22352790      -6.58383880       9.66804396        0       0.39515524      -0.00522349      -0.00360074      -0.00316186
Au      -3.12651355      -3.12651355      -0.00000000        0       0.03434264      -0.00383422      -0.00383422       0.00000001
Au      -1.50102129      -1.50102129       1.50102129        0       0.14961827       0.01945501       0.01945500      -0.01945502
Au      -2.99860350      -2.99860350       2.99860350        0       0.17587187      -0.01691712      -0.01691712       0.01691712
Au      -1.62309761      -1.62309761       4.96320800        0       0.02476943       0.00415496       0.00415496       0.01208691
Au      -3.20278062      -3.20278062       6.61513167        0       0.00777186      -0.00209834      -0.00209834       0.00245369
Au      -1.55508703      -1.55508703       8.15283832        0       0.12561730       0.00224137       0.00224137      -0.01364820
Au      -3.15563009      -3.15563009       9.60632040        0       0.40064420       0.02162903       0.02162903       0.00038175
Au      -9.33388339      -0.00000000      -9.33388339        0       0.56345124       0.01282095       0.00000000       0.01282095
Au      -7.83305441       1.60045500      -7.83305441        0       0.19993382      -0.00067128       0.00795540      -0.00067128
Au      -9.67145213      -0.00000000      -6.58389991        0       0.38752266       0.00334522       0.00000000       0.00217184
Au      -8.18543260       1.62071673      -4.91440246        0       0.10468966      -0.01282242      -0.00626798      -0.00608148
Au      -9.60347241       0.00000000      -3.26016772        0       0.38328663      -0.00165776      -0.00000000       0.01986454
Au      -8.15283832       1.55508703      -1.55508703        0       0.12561730       0.01364820      -0.00224137       0.00224137
Au      -9.33098545       3.16950616      -9.33098545        0       0.57765521       0.00592775       0.01392996       0.00592775
Au      -7.83207329       4.78863369      -7.83207329        0       0.15187261       0.00746950       0.00644044       0.00746950
Au      -9.66804396       3.22352790      -6.58383880        0       0.39515524       0.00316186       0.00522349      -0.00360074
Au      -8.24304888       4.81089251      -4.81089251        0       0.09300848      -0.00246407      -0.01409926       0.01409926
Au      -9.60632040       3.15563009      -3.15563009        0       0.40064420      -0.00038175      -0.02162903       0.02162903
Au      -8.18543260       4.91440246      -1.62071673        0       0.10468966      -0.01282242       0.00608148       0.00626798
Au      -9.30630453       6.45573262      -9.30630453        0       0.54356187      -0.00029842      -0.00397617      -0.00029842
Au      -7.60096894       7.60096894      -7.60096894        0       0.38057971      -0.00959849       0.00959849      -0.00959849
Au      -9.71064576       6.42801263      -6.42801263        0       0.38030745       0.01268963       0.00400236      -0.00400236
Au      -7.83207329       7.83207329      -4.78863369        0       0.15187261       0.00746950      -0.00746950      -0.00644044
Au      -9.66804396       6.58383880      -3.22352790        0       0.39515524       0.00316186       0.00360074      -0.00522349
Au      -7.83305441       7.83305441      -1.60045500        0       0.19993382      -0.00067128       0.00067128      -0.00795540
Au      -9.11833409       9.11833409      -9.11833409        0       0.64967501      -0.01194499       0.01194499      -0.01194499
Au      -9.30630453       9.30630453      -6.45573262        0       0.54356187      -0.00029842       0.00029842       0.00397617
Au      -9.33098545       9.33098545      -3.16950616        0       0.57765521       0.00592775      -0.00592775      -0.01392996
Au      -6.58389991      -0.00000000      -9.67145213        0       0.38752266       0.00217184       0.00000000       0.00334522
Au      -4.91440246       1.62071673      -8.18543260        0       0.10468966      -0.00608148      -0.00626798      -0.01282242
Au      -6.25468446      -0.00000000      -6.25468446        0       0.03704563       0.00946905       0.00000000       0.00946905
Au      -4.68557811       1.59226251      -4.68557811        0       0.04217071      -0.00469583       0.02883862      -0.00469583
Au      -6.56695077      -0.00000000      -3.28244737        0       0.00888928      -0.00177557       0.00000000      -0.00431389
Au      -4.96320800       1.62309761      -1.62309761        0       0.02476943      -0.01208691      -0.00415496       0.00415496
Au      -6.58383880       3.22352790      -9.66804396        0       0.39515524      -0.00360074       0.00522349       0.00316186
Au      -4.81089251       4.81089251      -8.24304888        0       0.09300848       0.01409926      -0.01409926      -0.00246407
Au      -6.24530839       3.20002578      -6.24530839        0       0.02357756       0.00280030      -0.00142986       0.00280030
Au      -4.51402123       4.51402123      -4.51402123        0       0.13537566       0.00905774      -0.00905774       0.00905774
Au      -6.61513167       3.20278062      -3.20278062        0       0.00777186      -0.00245369       0.00209834      -0.00209834
Au      -4.68557811       4.68557811      -1.59226251        0       0.04217071      -0.00469583       0.00469583      -0.02883862
Au      -6.42801263       6.42801263      -9.71064576        0       0.38030745      -0.00400236       0.00400236       0.01268963
Au      -4.78863369       7.83207329      -7.83207329        0       0.15187261      -0.00644044      -0.00746950       0.00746950
Au      -6.04604129       6.04604129      -6.04604129        0       0.09249799      -0.02003127       0.02003127      -0.02003127
Au      -4.81089251       8.24304888      -4.81089251        0       0.09300848       0.01409926       0.00246407       0.01409926
Au      -6.24530839       6.24530839      -3.20002578        0       0.02357756       0.00280030      -0.00280030       0.00142986
Au      -4.91440246       8.18543260      -1.62071673        0       0.10468966      -0.00608148       0.01282242       0.00626798
Au      -6.45573262       9.30630453      -9.30630453        0       0.54356187       0.00397617       0.00029842      -0.00029842
Au      -6.42801263       9.71064576      -6.42801263        0       0.38030745      -0.00400236      -0.01268963      -0.00400236
Au      -6.58383880       9.66804396      -3.22352790        0       0.39515524      -0.00360074      -0.00316186      -0.00522349
Au      -3.26016772       0.00000000      -9.60347241        0       0.38328663       0.01986454      -0.00000000      -0.00165776
Au      -1.55508703       1.55508703      -8.15283832        0       0.12561730       0.00224137      -0.00224137       0.01364820
Au      -3.28244737      -0.00000000      -6.56695077        0       0.00888928      -0.00431389       0.00000000      -0.00177557
Au      -1.62309761       1.62309761      -4.96320800        0       0.02476943       0.00415496      -0.00415496      -0.01208691
Au      -3.12651355      -0.00000000      -3.12651355        0       0.03434264      -0.00383422       0.00000001      -0.00383422
Au      -1.50102129       1.50102129      -1.50102129        0       0.14961827       0.01945500      -0.01945501       0.01945500
Au      -3.15563009       3.15563009      -9.60632040        0       0.40064420       0.02162903      -0.02162903      -0.00038175
Au      -1.62071673       4.91440246      -8.18543260        0       0.10468966       0.00626798       0.00608148      -0.01282242
Au      -3.20278062       3.20278062      -6.61513167        0       0.00777186      -0.00209834       0.00209834      -0.00245369
Au      -1.59226251       4.68557811      -4.68557811        0       0.04217071      -0.02883862       0.00469583      -0.00469583
Au      -2.99860350       2.99860350      -2.99860350        0       0.17587187      -0.01691712       0.01691712      -0.01691712
Au      -1.62309761       4.96320800      -1.62309761        0       0.02476943       0.00415496       0.01208691       0.00415496
Au      -3.22352790       6.58383880      -9.66804396        0       0.39515524      -0.00522349       0.00360074       0.00316186
Au      -1.60045500       7.83305441      -7.83305441        0       0.19993382      -0.00795540       0.00067128      -0.00067128
Au      -3.20002578       6.24530839      -6.24530839        0       0.02357756       0.00142986      -0.00280030       0.00280030
Au      -1.62071673       8.18543260      -4.91440246        0       0.10468966       0.00626798       0.01282242      -0.00608148
Au      -3.20278062       6.61513167      -3.20278062        0       0.00777186      -0.00209834       0.00245369      -0.00209834
Au      -1.55508703       8.15283832      -1.55508703        0       0.12561730       0.00224137      -0.01364820       0.00224137
Au      -3.16950616       9.33098545      -9.33098545        0       0.57765521      -0.01392996      -0.00592775       0.00592775
Au      -3.22352790       9.66804396      -6.58383880        0       0.39515524      -0.00522349      -0.00316186      -0.00360074
Au      -3.15563009       9.60632040      -3.15563009        0       0.40064420       0.02162903       0.00038175       0.02162903
Au      -9.74551227       0.00000000       0.00000000        0       0.42973155       0.00251015      -0.00000000      -0.00000000
Au      -8.15283832       1.55508703       1.55508703        0       0.12561730       0.01364820      -0.00224137      -0.00224137
Au      -9.60347241       0.00000000       3.26016772        0       0.38328663      -0.00165776      -0.00000000      -0.01986454
Au      -8.18543260       1.62071673       4.91440246        0       0.10468966      -0.01282242      -0.00626798       0.00608148
Au      -9.67145213      -0.00000000       6.58389991        0       0.38752266       0.00334522       0.00000000      -0.00217184
Au      -7.83305441       1.60045500       7.83305441        0       0.19993382      -0.00067128       0.00795540       0.00067128
Au      -9.33388339      -0.00000000       9.33388339        0       0.56345124       0.01282095      -0.00000000      -0.01282095
Au      -9.60347241       3.26016772       0.00000000        0       0.38328663      -0.00165776      -0.01986454      -0.00000000
Au      -8.18543260       4.91440246       1.62071673        0       0.10468966      -0.01282242       0.00608148      -0.00626798
Au      -9.60632040       3.15563009       3.15563009        0       0.40064420      -0.00038175      -0.02162903      -0.02162903
Au      -8.24304888       4.81089251       4.81089251        0       0.09300848      -0.00246407      -0.01409926      -0.01409926
Au      -9.66804396       3.22352790       6.58383880        0       0.39515524       0.00316186       0.00522349       0.00360074
Au      -7.83207329       4.78863369       7.83207329        0       0.15187261       0.00746950       0.00644044      -0.00746950
Au      -9.33098545       3.16950616       9.33098545        0       0.57765521       0.00592775       0.01392996      -0.00592775
Au      -9.67145213       6.58389991      -0.00000000        0       0.38752266       0.00334522      -0.00217184       0.00000000
Au      -7.83305441       7.83305441       1.60045500        0       0.19993382      -0.00067128       0.00067128       0.00795540
Au      -9.66804396       6.58383880       3.22352790        0       0.39515524       0.00316186       0.00360074       0.00522349
Au      -7.83207329       7.83207329       4.78863369        0       0.15187261       0.00746950      -0.00746950       0.00644044
Au      -9.71064576       6.42801263       6.42801263        0       0.38030745       0.01268963       0.00400236       0.00400236
Au      -7.60096894       7.60096894       7.60096894        0       0.38057971      -0.00959849       0.00959849       0.00959849
Au      -9.30630453       6.45573262       9.30630453        0       0.54356187      -0.00029842      -0.00397617       0.00029842
Au      -9.33388339       9.33388339      -0.00000000        0       0.56345124       0.01282095      -0.01282095       0.00000000
Au      -9.33098545       9.33098545       3.16950616        0       0.57765521       0.00592775      -0.00592775       0.01392996
Au      -9.30630453       9.30630453       6.45573262        0       0.54356187      -0.00029842       0.00029842      -0.00397617
Au      -9.11833409       9.11833409       9.11833409        0       0.64967501      -0.01194499       0.01194499       0.01194499
Au      -6.47655308       0.00000000       0.00000000        0       0.07512536       0.01119458      -0.00000000      -0.00000000
Au      -4.96320800       1.62309761       1.62309761        0       0.02476943      -0.01208691      -0.00415496      -0.00415496
Au      -6.56695077      -0.00000000       3.28244737        0       0.00888928      -0.00177557       0.00000000       0.00431389
Au      -4.68557811       1.59226251       4.68557811        0       0.04217071      -0.00469583       0.02883862       0.00469583
Au      -6.25468446      -0.00000000       6.25468446        0       0.03704563       0.00946905       0.00000000      -0.00946905
Au      -4.91440246       1.62071673       8.18543260        0       0.10468966      -0.00608148      -0.00626798       0.01282242
Au      -6.58389991      -0.00000000       9.67145213        0       0.38752266       0.00217184       0.00000000      -0.00334522
Au      -6.56695077       3.28244737      -0.00000000        0       0.00888928      -0.00177557       0.00431389       0.00000000
Au      -4.68557811       4.68557811       1.59226251        0       0.04217071      -0.00469583       0.00469583       0.02883862
Au      -6.61513167       3.20278062       3.20278062        0       0.00777186      -0.00245369       0.00209834       0.00209834
Au      -4.51402123       4.51402123       4.51402123        0       0.13537566       0.00905773      -0.00905773      -0.00905773
Au      -6.24530839       3.20002578       6.24530839        0       0.02357756       0.00280030      -0.00142986      -0.00280030
Au      -4.81089251       4.81089251       8.24304888        0       0.09300848       0.01409926      -0.01409926       0.00246407
Au      -6.58383880       3.22352790       9.66804396        0       0.39515524      -0.00360074       0.00522349      -0.00316186
Au      -6.25468446       6.25468446      -0.00000000        0       0.03704563       0.00946905      -0.00946905       0.00000000
Au      -4.91440246       8.18543260       1.62071673        0       0.10468966      -0.00608148       0.01282242      -0.00626798
Au      -6.24530839       6.24530839       3.20002578        0       0.02357756       0.00280030      -0.00280030      -0.00142986
Au      -4.81089251       8.24304888       4.81089251        0       0.09300848       0.01409926       0.00246407      -0.01409926
Au      -6.04604129       6.04604129       6.04604129        0       0.09249799      -0.02003126       0.02003126       0.02003126
Au      -4.78863369       7.83207329       7.83207329        0       0.15187261      -0.00644044      -0.00746950      -0.00746950