341
Lattice="40.051199999999994 0.0 0.0 0.0 40.051199999999994 0.0 0.0 0.0 40.051199999999994" Properties=species:S:1:pos:R:3:spacegroup_kinds:I:1:energies:R:1:forces:R:3 energy=90.818439606465 free_energy=90.818439606465 stress="-1.847578416356202e-05 7.239130947886093e-16 5.3114310017250615e-15 7.239130947886093e-16 -1.8475784163576177e-05 2.672992836249668e-15 5.3114310017250615e-15 2.672992836249668e-15 -1.8475784163567107e-05" pbc="T T T"
Au      -7.59179236      -7.59179236      -7.59179236        0       0.65433451      -0.01638710      -0.01638710      -0.01638710
Au      -7.76160588      -7.76160588      -4.93355460        0       0.56983808      -0.00110335      -0.00110335      -0.01039435
Au      -7.75058112      -7.75058112      -1.45188874        0       0.56785426       0.00731934       0.00731934       0.02772484
Au      -7.76160588      -4.93355460      -7.76160588        0       0.56983808      -0.00110335      -0.01039435      -0.00110335
Au      -8.11709536      -4.85010437      -4.85010437        0       0.38772988      -0.00329815      -0.00098411      -0.00098411
Au      -8.03989515      -4.96706281      -1.61026460        0       0.38970476      -0.01151686      -0.01087994       0.00589661
Au      -7.75058112      -1.45188874      -7.75058112        0       0.56785426       0.00731934       0.02772484       0.00731934
Au      -8.03989515      -1.61026460      -4.96706281        0       0.38970476      -0.01151686       0.00589661      -0.01087994
Au      -7.99149359      -1.56880362      -1.56880362        0       0.39401269      -0.02231071       0.00757593       0.00757593
Au      -4.93355460      -7.76160588      -7.76160588        0       0.56983808      -0.01039435      -0.00110335      -0.00110335
Au      -4.85010437      -8.11709536      -4.85010437        0       0.38772988      -0.00098411      -0.00329815      -0.00098411
Au      -4.96706281      -8.03989515      -1.61026460        0       0.38970476      -0.01087994      -0.01151686       0.00589661
Au      -4.85010437      -4.85010437      -8.11709536        0       0.38772988      -0.00098411      -0.00098411      -0.00329815
Au      -6.07121461      -6.07121461      -6.07121461        0       0.41645266       0.01070514       0.01070514       0.01070514
Au      -4.53167442      -4.53167442      -4.53167442        0       0.08895575      -0.02324066      -0.02324066      -0.02324066
Au      -6.30861324      -6.30861324      -3.22220058        0       0.14203594       0.00250828       0.00250828       0.00821109
Au      -4.69289071      -4.69289071      -1.65065452        0       0.02482289       0.00684173       0.00684173      -0.03255421
Au      -4.96706281      -1.61026460      -8.03989515        0       0.38970476      -0.01087994       0.00589661      -0.01151686
Au      -6.30861324      -3.22220058      -6.30861324        0       0.14203594       0.00250828       0.00821109       0.00250828
Au      -4.69289071      -1.65065452      -4.69289071        0       0.02482289       0.00684173      -0.03255421       0.00684173
Au      -6.64584403      -3.23233398      -3.23233398        0       0.10327097      -0.00583265       0.00435191       0.00435191
Au      -4.97878528      -1.63967254      -1.63967254        0       0.01651967      -0.01704604       0.00696389       0.00696389
Au      -1.45188874      -7.75058112      -7.75058112        0       0.56785426       0.02772484       0.00731934       0.00731934
Au      -1.61026460      -8.03989515      -4.96706281        0       0.38970476       0.00589661      -0.01151686      -0.01087994
Au      -1.56880362      -7.99149359      -1.56880362        0       0.39401269       0.00757593      -0.02231071       0.00757593
Au      -1.61026460      -4.96706281      -8.03989515        0       0.38970476       0.00589661      -0.01087994      -0.01151686
Au      -3.22220058      -6.30861324      -6.30861324        0       0.14203594       0.00821109       0.00250828       0.00250828
Au      -1.65065452      -4.69289071      -4.69289071        0       0.02482289      -0.03255421       0.00684173       0.00684173
Au      -3.23233398      -6.64584403      -3.23233398        0       0.10327097       0.00435191      -0.00583265       0.00435191
Au      -1.63967254      -4.97878528      -1.63967254        0       0.01651967       0.00696389      -0.01704604       0.00696389
Au      -1.56880362      -1.56880362      -7.99149359        0       0.39401269       0.00757593       0.00757593      -0.02231071
Au      -3.23233398      -3.23233398      -6.64584403        0       0.10327097       0.00435191       0.00435191      -0.00583265
Au      -1.63967254      -1.63967254      -4.97878528        0       0.01651967       0.00696389       0.00696389      -0.01704604
Au      -3.00346827      -3.00346827      -3.00346827        0       0.18372597       0.01517594       0.01517594       0.01517594
Au      -1.50216915      -1.50216915      -1.50216915        0       0.13379633      -0.00483900      -0.00483901      -0.00483900
Au      -7.75058112      -7.75058112       1.45188874        0       0.56785426       0.00731934       0.00731934      -0.02772484
Au      -7.76160588      -7.76160588       4.93355460        0       0.56983808      -0.00110335      -0.00110335       0.01039435
Au      -7.59179236      -7.59179236       7.59179236        0       0.65433451      -0.01638711      -0.01638711       0.01638711
Au      -8.03989515      -4.96706281       1.61026460        0       0.38970476      -0.01151686      -0.01087994      -0.00589661
Au      -8.11709536      -4.85010437       4.85010437        0       0.38772988      -0.00329815      -0.00098411       0.00098411
Au      -7.76160588      -4.93355460       7.76160588        0       0.56983808      -0.00110335      -0.01039435       0.00110335
Au      -7.99149359      -1.56880362       1.56880362        0       0.39401269      -0.02231071       0.00757593      -0.00757593
Au      -8.03989515      -1.61026460       4.96706281        0       0.38970476      -0.01151686       0.00589661       0.01087994
Au      -7.75058112      -1.45188874       7.75058112        0       0.56785426       0.00731934       0.02772484      -0.00731934
Au      -4.96706281      -8.03989515       1.61026460        0       0.38970476      -0.01087994      -0.01151686      -0.00589661
Au      -4.85010437      -8.11709536       4.85010437        0       0.38772988      -0.00098411      -0.00329815       0.00098411
Au      -4.93355460      -7.76160588       7.76160588        0       0.56983808      -0.01039435      -0.00110335       0.00110335
Au      -6.21129211      -6.21129211      -0.00000000        0       0.26245887       0.02446262       0.02446262       0.00000000
Au      -4.69289071      -4.69289071       1.65065452        0       0.02482289       0.00684173       0.00684173       0.03255420
Au      -6.30861324      -6.30861324       3.22220058        0       0.14203594       0.00250828       0.00250828      -0.00821109
Au      -4.53167442      -4.53167442       4.53167442        0       0.08895575      -0.02324068      -0.02324068       0.02324068
Au      -6.07121461      -6.07121461       6.07121461        0       0.41645266       0.01070515       0.01070515      -0.01070515
Au      -4.85010437      -4.85010437       8.11709536        0       0.38772988      -0.00098411      -0.00098411       0.00329815
Au      -6.56531092      -3.29234552      -0.00000000        0       0.09552787       0.02980665       0.01340920       0.00000000
Au      -4.97878528      -1.63967254       1.63967254        0       0.01651967      -0.01704604       0.00696389      -0.00696389
Au      -6.64584403      -3.23233398       3.23233398        0       0.10327097      -0.00583265       0.00435191      -0.00435191
Au      -4.69289071      -1.65065452       4.69289071        0       0.02482289       0.00684173      -0.03255420      -0.00684173
Au      -6.30861324      -3.22220058       6.30861324        0       0.14203594       0.00250828       0.00821109      -0.00250828
Au      -4.96706281      -1.61026460       8.03989515        0       0.38970476      -0.01087994       0.00589661       0.01151686
Au      -1.56880362      -7.99149359       1.56880362        0       0.39401269       0.00757593      -0.02231071      -0.00757593
Au      -1.61026460      -8.03989515       4.96706281        0       0.38970476       0.00589661      -0.01151686       0.01087994
Au      -1.45188874      -7.75058112       7.75058112        0       0.56785426       0.02772484       0.00731934      -0.00731934
Au      -3.29234552      -6.56531092      -0.00000000        0       0.09552787       0.01340920       0.02980665       0.00000000
Au      -1.63967254      -4.97878528       1.63967254        0       0.01651967       0.00696389      -0.01704604      -0.00696389
Au      -3.23233398      -6.64584403       3.23233398        0       0.10327097       0.00435191      -0.00583265      -0.00435191
Au      -1.65065452      -4.69289071       4.69289071        0       0.02482289      -0.03255420       0.00684173      -0.00684173
Au      -3.22220058      -6.30861324       6.30861324        0       0.14203594       0.00821109       0.00250828      -0.00250828
Au      -1.61026460      -4.96706281       8.03989515        0       0.38970476       0.00589661      -0.01087994       0.01151686
Au      -3.14147885      -3.14147885      -0.00000000        0       0.02234699      -0.02230979      -0.02230979       0.00000001
Au      -1.50216914      -1.50216914       1.50216915        0       0.13379633      -0.00483913      -0.00483914       0.00483911
Au      -3.00346827      -3.00346827       3.00346827        0       0.18372597       0.01517600       0.01517600      -0.01517600
Au      -1.63967254      -1.63967254       4.97878528        0       0.01651967       0.00696389       0.00696389       0.01704604
Au      -3.23233398      -3.23233398       6.64584403        0       0.10327097       0.00435191       0.00435191       0.00583265
Au      -1.56880362      -1.56880362       7.99149359        0       0.39401269       0.00757593       0.00757593       0.02231071
Au      -7.75058112       1.45188874      -7.75058112        0       0.56785426       0.00731934      -0.02772484       0.00731934
Au      -8.03989515       1.61026460      -4.96706281        0       0.38970476      -0.01151686      -0.00589661      -0.01087994
Au      -7.99149359       1.56880362      -1.56880362        0       0.39401269      -0.02231071      -0.00757593       0.00757593
Au      -7.76160588       4.93355460      -7.76160588        0       0.56983808      -0.00110335       0.01039435      -0.00110335
Au      -8.11709536       4.85010437      -4.85010437        0       0.38772988      -0.00329815       0.00098411      -0.00098411
Au      -8.03989515       4.96706281      -1.61026460        0       0.38970476      -0.01151686       0.01087994       0.00589661
Au      -7.59179236       7.59179236      -7.59179236        0       0.65433451      -0.01638711       0.01638711      -0.01638711
Au      -7.76160588       7.76160588      -4.93355460        0       0.56983808      -0.00110335       0.00110335      -0.01039435
Au      -7.75058112       7.75058112      -1.45188874        0       0.56785426       0.00731934      -0.00731934       0.02772484
Au      -4.96706281       1.61026460      -8.03989515        0       0.38970476      -0.01087994      -0.00589661      -0.01151686
Au      -6.21129211      -0.00000000      -6.21129211        0       0.26245887       0.02446262       0.00000000       0.02446262
Au      -4.69289071       1.65065452      -4.69289071        0       0.02482289       0.00684173       0.03255420       0.00684173
Au      -6.56531092      -0.00000000      -3.29234552        0       0.09552787       0.02980665       0.00000000       0.01340920
Au      -4.97878528       1.63967254      -1.63967254        0       0.01651967      -0.01704604      -0.00696389       0.00696389
Au      -4.85010437       4.85010437      -8.11709536        0       0.38772988      -0.00098411       0.00098411      -0.00329815
Au      -6.30861324       3.22220058      -6.30861324        0       0.14203594       0.00250828      -0.00821109       0.00250828
Au      -4.53167442       4.53167442      -4.53167442        0       0.08895575      -0.02324069       0.02324069      -0.02324069
Au      -6.64584403       3.23233398      -3.23233398        0       0.10327097      -0.00583265      -0.00435191       0.00435191
Au      -4.69289071       4.69289071      -1.65065452        0       0.02482289       0.00684173      -0.00684173      -0.03255420
Au      -4.93355460       7.76160588      -7.76160588        0       0.56983808      -0.01039435       0.00110335      -0.00110335
Au      -6.07121461       6.07121461      -6.07121461        0       0.41645266       0.01070515      -0.01070515       0.01070515
Au      -4.85010437       8.11709536      -4.85010437        0       0.38772988      -0.00098411       0.00329815      -0.00098411
Au      -6.30861324       6.30861324      -3.22220058        0       0.14203594       0.00250828      -0.00250828       0.00821109
Au      -4.96706281       8.03989515      -1.61026460        0       0.38970476      -0.01087994       0.01151686       0.00589661
Au      -1.56880362       1.56880362      -7.99149359        0       0.39401269       0.00757593      -0.00757593      -0.02231071
Au      -3.29234552      -0.00000000      -6.56531092        0       0.09552787       0.01340920       0.00000000       0.02980665
Au      -1.63967254       1.63967254      -4.97878528        0       0.01651967       0.00696389      -0.00696389      -0.01704604
Au      -3.14147885      -0.00000000      -3.14147885        0       0.02234699      -0.02230979       0.00000001      -0.02230979
Au      -1.50216914       1.50216914      -1.50216914        0       0.13379634      -0.00483922       0.00483919      -0.00483922
Au      -1.61026460       4.96706281      -8.03989515        0       0.38970476       0.00589661       0.01087994      -0.01151686
Au      -3.23233398       3.23233398      -6.64584403        0       0.10327097       0.00435191      -0.00435191      -0.00583265
Au      -1.65065452       4.69289071      -4.69289071        0       0.02482289      -0.03255420      -0.00684173       0.00684173
Au      -3.00346827       3.00346827      -3.00346827        0       0.18372596       0.01517603      -0.01517603       0.01517603
Au      -1.63967254       4.97878528      -1.63967254        0       0.01651967       0.00696389       0.01704604       0.00696389
Au      -1.45188874       7.75058112      -7.75058112        0       0.56785426       0.02772484      -0.00731934       0.00731934
Au      -3.22220058       6.30861324      -6.30861324        0       0.14203594       0.00821109      -0.00250828       0.00250828
Au      -1.61026460       8.03989515      -4.96706281        0       0.38970476       0.00589661       0.01151686      -0.01087994
Au      -3.23233398       6.64584403      -3.23233398        0       0.10327097       0.00435191       0.00583265       0.00435191
Au      -1.56880362       7.99149359      -1.56880362        0       0.39401269       0.00757593       0.02231071       0.00757593
Au      -7.99149359       1.56880362       1.56880362        0       0.39401269      -0.02231071      -0.00757593      -0.00757593
Au      -8.03989515       1.61026460       4.96706281        0       0.38970476      -0.01151686      -0.00589661       0.01087994
Au      -7.75058112       1.45188874       7.75058112        0       0.56785426       0.00731934      -0.02772484      -0.00731934
Au      -8.03989515       4.96706281       1.61026460        0       0.38970476      -0.01151686       0.01087994      -0.00589661
Au      -8.11709536       4.85010437       4.85010437        0       0.38772988      -0.00329815       0.00098411       0.00098411
Au      -7.76160588       4.93355460       7.76160588        0       0.56983808      -0.00110335       0.01039435       0.00110335
Au      -7.75058112       7.75058112       1.45188874        0       0.56785426       0.00731934      -0.00731934      -0.02772484
Au      -7.76160588       7.76160588       4.93355460        0       0.56983808      -0.00110335       0.00110335       0.01039435
Au      -7.59179236       7.59179236       7.59179236        0       0.65433451      -0.01638711       0.01638711       0.01638711
Au      -6.46679597       0.00000000       0.00000000        0       0.17707630       0.00093955      -0.00000000      -0.00000000
Au      -4.97878528       1.63967254       1.63967254        0       0.01651967      -0.01704604      -0.00696389      -0.00696389
Au      -6.56531092      -0.00000000       3.29234552        0       0.09552787       0.02980665       0.00000000      -0.01340920
Au      -4.69289071       1.65065452       4.69289071        0       0.02482289       0.00684172       0.03255419      -0.00684172
Au      -6.21129211      -0.00000000       6.21129211        0       0.26245887       0.02446262       0.00000000      -0.02446262
Au      -4.96706281       1.61026460       8.03989515        0       0.38970476      -0.01087994      -0.00589661       0.01151686
Au      -6.56531092       3.29234552      -0.00000000        0       0.09552787       0.02980665      -0.01340920       0.00000000
Au      -4.69289071       4.69289071       1.65065452        0       0.02482289       0.00684172      -0.00684172       0.03255419
Au      -6.64584403       3.23233398       3.23233398        0       0.10327097      -0.00583265      -0.00435191      -0.00435191
Au      -4.53167442       4.53167442       4.53167442        0       0.08895575      -0.02324071       0.02324071       0.02324071
Au      -6.30861324       3.22220058       6.30861324        0       0.14203594       0.00250828      -0.00821109      -0.00250828
Au      -4.85010437       4.85010437       8.11709536        0       0.38772988      -0.00098411       0.00098411       0.00329815
Au      -6.21129211       6.21129211      -0.00000000        0       0.26245887       0.02446263      -0.02446263       0.00000000
Au      -4.96706281       8.03989515       1.61026460        0       0.38970476      -0.01087994       0.01151686      -0.00589661
Au      -6.30861324       6.30861324       3.22220058        0       0.14203594       0.00250828      -0.00250828      -0.00821109
Au      -4.85010437       8.11709536       4.85010437        0       0.38772988      -0.00098411       0.00329815       0.00098411
Au      -6.07121461       6.07121461       6.07121461        0       0.41645266       0.01070516      -0.01070516      -0.01070516
Au      -4.93355460       7.76160588       7.76160588        0       0.56983808      -0.01039435       0.00110335       0.00110335
Au      -3.40822166       0.00000000       0.00000000        0      -0.00204373       0.04545442      -0.00000001      -0.00000000
Au      -1.50216914       1.50216914       1.50216914        0       0.13379634      -0.00483934       0.00483931       0.00483932
Au      -3.14147885      -0.00000000       3.14147885        0       0.02234699      -0.02230978       0.00000001       0.02230978
Au      -1.63967254       1.63967254       4.97878528        0       0.01651967       0.00696389      -0.00696389       0.01704604
Au      -3.29234552      -0.00000000       6.56531092        0       0.09552787       0.01340920       0.00000000      -0.02980665
Au      -1.56880362       1.56880362       7.99149359        0       0.39401269       0.00757593      -0.00757593       0.02231071
Au      -3.14147885       3.14147885      -0.00000000        0       0.02234699      -0.02230978       0.02230978       0.00000001
Au      -1.63967254       4.97878528       1.63967254        0       0.01651967       0.00696389       0.01704604      -0.00696389
Au      -3.00346827       3.00346827       3.00346827        0       0.18372596       0.01517609      -0.01517609      -0.01517609
Au      -1.65065452       4.69289071       4.69289071        0       0.02482289      -0.03255419      -0.00684172      -0.00684172
Au      -3.23233398       3.23233398       6.64584403        0       0.10327097       0.00435191      -0.00435191       0.00583265
Au      -1.61026460       4.96706281       8.03989515        0       0.38970476       0.00589661       0.01087994       0.01151687
Au      -3.29234552       6.56531092      -0.00000000        0       0.09552787       0.01340920      -0.02980665       0.00000000
Au      -1.56880362       7.99149359       1.56880362        0       0.39401269       0.00757593       0.02231071      -0.00757593
Au      -3.23233398       6.64584403       3.23233398        0       0.10327097       0.00435191       0.00583265      -0.00435191
Au      -1.61026460       8.03989515       4.96706281        0       0.38970476       0.00589661       0.01151687       0.01087994
Au      -3.22220058       6.30861324       6.30861324        0       0.14203594       0.00821109      -0.00250828      -0.00250828
Au      -1.45188874       7.75058112       7.75058112        0       0.56785426       0.02772484      -0.00731934      -0.00731934
Au       1.45188874      -7.75058112      -7.75058112        0       0.56785426      -0.02772484       0.00731934       0.00731934
Au       1.61026460      -8.03989515      -4.96706281        0       0.38970476      -0.00589661      -0.01151686      -0.01087994
Au       1.56880362      -7.99149359      -1.56880362        0       0.39401269      -0.00757593      -0.02231071       0.00757593
Au       1.61026460      -4.96706281      -8.03989515        0       0.38970476      -0.00589661      -0.01087994      -0.01151686
Au      -0.00000000      -6.21129211      -6.21129211        0       0.26245887       0.00000000       0.02446262       0.02446262
Au       1.65065452      -4.69289071      -4.69289071        0       0.02482289       0.03255420       0.00684173       0.00684173
Au      -0.00000000      -6.56531092      -3.29234552        0       0.09552787       0.00000000       0.02980665       0.01340920
Au       1.63967254      -4.97878528      -1.63967254        0       0.01651967      -0.00696389      -0.01704604       0.00696389
Au       1.56880362      -1.56880362      -7.99149359        0       0.39401269      -0.00757593       0.00757593      -0.02231071
Au      -0.00000000      -3.29234552      -6.56531092        0       0.09552787       0.00000000       0.01340920       0.02980665
Au       1.63967254      -1.63967254      -4.97878528        0       0.01651967      -0.00696389       0.00696389      -0.01704604
Au      -0.00000000      -3.14147885      -3.14147885        0       0.02234699       0.00000001      -0.02230979      -0.02230979
Au       1.50216915      -1.50216914      -1.50216914        0       0.13379633       0.00483911      -0.00483914      -0.00483914
Au       4.93355460      -7.76160588      -7.76160588        0       0.56983808       0.01039435      -0.00110335      -0.00110335
Au       4.85010437      -8.11709536      -4.85010437        0       0.38772988       0.00098411      -0.00329815      -0.00098411
Au       4.96706281      -8.03989515      -1.61026460        0       0.38970476       0.01087994      -0.01151686       0.00589661
Au       4.85010437      -4.85010437      -8.11709536        0       0.38772988       0.00098411      -0.00098411      -0.00329815
Au       3.22220058      -6.30861324      -6.30861324        0       0.14203594      -0.00821109       0.00250828       0.00250828
Au       4.53167442      -4.53167442      -4.53167442        0       0.08895575       0.02324068      -0.02324068      -0.02324068
Au       3.23233398      -6.64584403      -3.23233398        0       0.10327097      -0.00435191      -0.00583265       0.00435191
Au       4.69289071      -4.69289071      -1.65065452        0       0.02482289      -0.00684173       0.00684173      -0.03255420
Au       4.96706281      -1.61026460      -8.03989515        0       0.38970476       0.01087994       0.00589661      -0.01151686
Au       3.23233398      -3.23233398      -6.64584403        0       0.10327097      -0.00435191       0.00435191      -0.00583265
Au       4.69289071      -1.65065452      -4.69289071        0       0.02482289      -0.00684173      -0.03255420       0.00684173
Au       3.00346827      -3.00346827      -3.00346827        0       0.18372597      -0.01517600       0.01517600       0.01517600
Au       4.97878528      -1.63967254      -1.63967254        0       0.01651967       0.01704604       0.00696389       0.00696389
Au       7.59179236      -7.59179236      -7.59179236        0       0.65433451       0.01638711      -0.01638711      -0.01638711
Au       7.76160588      -7.76160588      -4.93355460        0       0.56983808       0.00110335      -0.00110335      -0.01039435
Au       7.75058112      -7.75058112      -1.45188874        0       0.56785426      -0.00731934       0.00731934       0.02772484
Au       7.76160588      -4.93355460      -7.76160588        0       0.56983808       0.00110335      -0.01039435      -0.00110335
Au       6.07121461      -6.07121461      -6.07121461        0       0.41645266      -0.01070515       0.01070515       0.01070515
Au       8.11709536      -4.85010437      -4.85010437        0       0.38772988       0.00329815      -0.00098411      -0.00098411
Au       6.30861324      -6.30861324      -3.22220058        0       0.14203594      -0.00250828       0.00250828       0.00821109
Au       8.03989515      -4.96706281      -1.61026460        0       0.38970476       0.01151686      -0.01087994       0.00589661
Au       7.75058112      -1.45188874      -7.75058112        0       0.56785426      -0.00731934       0.02772484       0.00731934
Au       6.30861324      -3.22220058      -6.30861324        0       0.14203594      -0.00250828       0.00821109       0.00250828
Au       8.03989515      -1.61026460      -4.96706281        0       0.38970476       0.01151686       0.00589661      -0.01087994
Au       6.64584403      -3.23233398      -3.23233398        0       0.10327097       0.00583265       0.00435191       0.00435191
Au       7.99149359      -1.56880362      -1.56880362        0       0.39401269       0.02231071       0.00757593       0.00757593
Au       1.56880362      -7.99149359       1.56880362        0       0.39401269      -0.00757593      -0.02231071      -0.00757593
Au       1.61026460      -8.03989515       4.96706281        0       0.38970476      -0.00589661      -0.01151686       0.01087994
Au       1.45188874      -7.75058112       7.75058112        0       0.56785426      -0.02772484       0.00731934      -0.00731934
Au       0.00000000      -6.46679597       0.00000000        0       0.17707630      -0.00000000       0.00093955      -0.00000000
Au       1.63967254      -4.97878528       1.63967254        0       0.01651967      -0.00696389      -0.01704604      -0.00696389
Au      -0.00000000      -6.56531092       3.29234552        0       0.09552787       0.00000000       0.02980665      -0.01340920
Au       1.65065452      -4.69289071       4.69289071        0       0.02482289       0.03255420       0.00684173      -0.00684173
Au      -0.00000000      -6.21129211       6.21129211        0       0.26245887       0.00000000       0.02446262      -0.02446262
Au       1.61026460      -4.96706281       8.03989515        0       0.38970476      -0.00589661      -0.01087994       0.01151686
Au       0.00000000      -3.40822166       0.00000000        0      -0.00204373      -0.00000000       0.04545442      -0.00000000
Au       1.50216914      -1.50216914       1.50216914        0       0.13379634       0.00483924      -0.00483927       0.00483924
Au      -0.00000000      -3.14147885       3.14147885        0       0.02234699       0.00000001      -0.02230978       0.02230978
Au       1.63967254      -1.63967254       4.97878528        0       0.01651967      -0.00696389       0.00696389       0.01704604
Au      -0.00000000      -3.29234552       6.56531092        0       0.09552787       0.00000000       0.01340920      -0.02980665
Au       1.56880362      -1.56880362       7.99149359        0       0.39401269      -0.00757593       0.00757593       0.02231071
Au       4.96706281      -8.03989515       1.61026460        0       0.38970476       0.01087994      -0.01151686      -0.00589661
Au       4.85010437      -8.11709536       4.85010437        0       0.38772988       0.00098411      -0.00329815       0.00098411
Au       4.93355460      -7.76160588       7.76160588        0       0.56983808       0.01039435      -0.00110335       0.00110335
Au       3.29234552      -6.56531092      -0.00000000        0       0.09552787      -0.01340920       0.02980665       0.00000000
Au       4.69289071      -4.69289071       1.65065452        0       0.02482289      -0.00684173       0.00684173       0.03255420
Au       3.23233398      -6.64584403       3.23233398        0       0.10327097      -0.00435191      -0.00583265      -0.00435191
Au       4.53167442      -4.53167442       4.53167442        0       0.08895575       0.02324070      -0.02324070       0.02324070
Au       3.22220058      -6.30861324       6.30861324        0       0.14203594      -0.00821109       0.00250828      -0.00250828
Au       4.85010437      -4.85010437       8.11709536        0       0.38772988       0.00098411      -0.00098411       0.00329815
Au       3.14147885      -3.14147885      -0.00000000        0       0.02234699       0.02230978      -0.02230978       0.00000001
Au       4.97878528      -1.63967254       1.63967254        0       0.01651967       0.01704604       0.00696389      -0.00696389
Au       3.00346827      -3.00346827       3.00346827        0       0.18372596      -0.01517605       0.01517605      -0.01517605
Au       4.69289071      -1.65065452       4.69289071        0       0.02482289      -0.00684172      -0.03255420      -0.00684172