2331
Lattice="80.10239999999999 0.0 0.0 0.0 80.10239999999999 0.0 0.0 0.0 80.10239999999999" Properties=species:S:1:pos:R:3:spacegroup_kinds:I:1:energies:R:1:forces:R:3 energy=349.9240139516993 free_energy=349.9240139516993 stress="-2.9681556861119805e-06 9.35908302647865e-09 1.1049198806597178e-08 9.35908302647865e-09 -2.9685417062207367e-06 1.1884506939151147e-08 1.1049198806597178e-08 1.1884506939151147e-08 -2.9667787168561546e-06" pbc="T T T"
Au     -15.31992583     -15.31992571     -15.31992577        0       0.65277049      -0.00484383      -0.00484382      -0.00484382
Au     -13.81830855     -13.81830854     -13.81830854        0       0.31592856       0.00389842       0.00389856       0.00389852
Au     -15.54242104     -15.54242099     -12.62899014        0       0.47755991      -0.00487436      -0.00487438      -0.00037860
Au     -14.00597617     -14.00597625     -11.05439565        0       0.11656638      -0.00109096      -0.00109114      -0.00403492
Au     -15.70082784     -15.70082803      -9.79841414        0       0.46123375       0.00064956       0.00064941      -0.00266204
Au     -14.13647575     -14.13647578      -8.18937897        0       0.18132468       0.00041486       0.00041477      -0.00539670
Au     -15.82408712     -15.82408753      -7.04662212        0       0.55582139       0.00403884       0.00403858       0.00014284
Au     -14.43583365     -14.43583377      -5.07738951        0       0.11660284       0.00084524       0.00084523      -0.00614058
Au     -15.64862282     -15.64862321      -2.86076725        0       0.56564066       0.00182922       0.00182905      -0.00120513
Au     -14.07724779     -14.07724783      -1.44043413        0       0.22591565       0.00225156       0.00225144      -0.00143193
Au     -15.54242101     -12.62899007     -15.54242099        0       0.47755991      -0.00487445      -0.00037865      -0.00487446
Au     -14.00597621     -11.05439559     -14.00597625        0       0.11656641      -0.00109116      -0.00403528      -0.00109122
Au     -16.01254191     -12.69004096     -12.69004092        0       0.33438151       0.00199891       0.00044588       0.00044586
Au     -14.58794674     -11.06382827     -11.06382824        0       0.06362495       0.00089396       0.00185319       0.00185328
Au     -16.14260586     -12.95215509      -9.70426719        0       0.36109857       0.00032019      -0.00043530      -0.00006042
Au     -14.63686364     -11.28210989      -8.06732833        0       0.07780682       0.00235704      -0.00015199       0.00232571
Au     -16.22161875     -13.14359348      -6.79151298        0       0.41900561       0.00057325       0.00018518       0.00193193
Au     -14.82400723     -11.44001833      -5.09919245        0       0.12882616       0.00175975      -0.00007979      -0.00300157
Au     -15.88102584     -12.97051266      -3.14387097        0       0.37232882       0.00293150       0.00007971       0.00082262
Au     -14.51213922     -11.23114789      -1.50293595        0       0.09007771       0.00503112       0.00189555      -0.00206075
Au     -15.70082786      -9.79841405     -15.70082794        0       0.46123377       0.00064950      -0.00266195       0.00064944
Au     -14.13647574      -8.18937896     -14.13647575        0       0.18132474       0.00041445      -0.00539674       0.00041443
Au     -16.14260578      -9.70426701     -12.95215486        0       0.36109858       0.00032024      -0.00006050      -0.00043546
Au     -14.63686344      -8.06732829     -11.28210968        0       0.07780679       0.00235691       0.00232561      -0.00015191
Au     -16.09432603      -9.39247947      -9.39247945        0       0.36140379      -0.00095166      -0.00143219      -0.00143212
Au     -14.37971967      -7.88007863      -7.88007867        0       0.13479828      -0.00187376      -0.00120909      -0.00120881
Au     -16.14279187      -9.50210052      -6.57687632        0       0.35932132      -0.00601338      -0.00180831      -0.00523716
Au     -14.63943902      -7.95687831      -4.91193238        0       0.11131170      -0.00430842      -0.00303022       0.00014249
Au     -15.94515899      -9.68369585      -3.24861563        0       0.36166735       0.00135691      -0.00083163       0.00247304
Au     -14.35276625      -8.18677686      -1.57445862        0       0.09655371      -0.00012353       0.00056318      -0.00098779
Au     -15.82408718      -7.04662193     -15.82408736        0       0.55582140       0.00403872       0.00014253       0.00403860
Au     -14.43583372      -5.07738938     -14.43583377        0       0.11660291       0.00084501      -0.00614098       0.00084502
Au     -16.22161849      -6.79151281     -13.14359318        0       0.41900556       0.00057291       0.00193185       0.00018518
Au     -14.82400700      -5.09919239     -11.44001797        0       0.12882613       0.00175921      -0.00300172      -0.00007971
Au     -16.14279205      -6.57687647      -9.50210049        0       0.35932139      -0.00601349      -0.00523724      -0.00180847
Au     -14.63943923      -4.91193242      -7.95687847        0       0.11131171      -0.00430853       0.00014233      -0.00303010
Au     -16.35511251      -6.60801729      -6.60801725        0       0.41908887      -0.00085138      -0.00177343      -0.00177331
Au     -15.04529504      -4.88690477      -4.88690479        0       0.12268098      -0.00516375       0.00207746       0.00207770
Au     -16.07463537      -6.67937130      -3.00217854        0       0.38813345      -0.00552745      -0.00436363      -0.00029933
Au     -14.75964963      -4.86693795      -1.47549385        0       0.12189916      -0.00260761      -0.00307333      -0.00273980
Au     -15.64862280      -2.86076716     -15.64862298        0       0.56564066       0.00182944      -0.00120461       0.00182937
Au     -14.07724767      -1.44043370     -14.07724769        0       0.22591578       0.00224909      -0.00143435       0.00224905
Au     -15.88102546      -3.14387088     -12.97051239        0       0.37232870       0.00293108       0.00082252       0.00007961
Au     -14.51213878      -1.50293568     -11.23114790        0       0.09007766       0.00502928      -0.00206238       0.00189562
Au     -15.94515889      -3.24861529      -9.68369599        0       0.36166728       0.00135631       0.00247312      -0.00083163
Au     -14.35276636      -1.57445838      -8.18677678        0       0.09655382      -0.00012413      -0.00098883       0.00056411
Au     -16.07463534      -3.00217856      -6.67937128        0       0.38813344      -0.00552783      -0.00029942      -0.00436363
Au     -14.75964961      -1.47549366      -4.86693819        0       0.12189917      -0.00260801      -0.00274048      -0.00307328
Au     -16.08130818      -3.07056692      -3.07056718        0       0.38897060      -0.00600020       0.00643330       0.00643333
Au     -14.47145065      -1.54130937      -1.54130921        0       0.11048474       0.00224836       0.00090540       0.00090620
Au     -12.62899020     -15.54242102     -15.54242104        0       0.47755991      -0.00037864      -0.00487439      -0.00487438
Au     -11.05439573     -14.00597624     -14.00597620        0       0.11656642      -0.00403512      -0.00109136      -0.00109124
Au     -12.69004085     -16.01254188     -12.69004088        0       0.33438153       0.00044579       0.00199906       0.00044585
Au     -11.06382820     -14.58794657     -11.06382822        0       0.06362489       0.00185322       0.00089451       0.00185332
Au     -12.95215459     -16.14260568      -9.70426687        0       0.36109851      -0.00043554       0.00031988      -0.00006071
Au     -11.28210946     -14.63686322      -8.06732840        0       0.07780679      -0.00015207       0.00235709       0.00232561
Au     -13.14359273     -16.22161836      -6.79151278        0       0.41900548       0.00018512       0.00057308       0.00193193
Au     -11.44001746     -14.82400694      -5.09919233        0       0.12882611      -0.00007979       0.00175965      -0.00300178
Au     -12.97051205     -15.88102550      -3.14387101        0       0.37232866       0.00007978       0.00293143       0.00082253
Au     -11.23114769     -14.51213840      -1.50293585        0       0.09007767       0.00189559       0.00503119      -0.00206087
Au     -12.69004088     -12.69004094     -16.01254190        0       0.33438152       0.00044579       0.00044586       0.00199895
Au     -11.06382822     -11.06382827     -14.58794668        0       0.06362493       0.00185312       0.00185313       0.00089407
Au     -12.21782728     -12.21782713     -12.21782720        0       0.07463216      -0.00165479      -0.00165493      -0.00165457
Au     -10.64555849     -10.64555836     -10.64555836        0       0.13333969      -0.00008223      -0.00008278      -0.00008162
Au     -12.41848422     -12.41848417      -9.44187070        0       0.04154280       0.00219804       0.00219814      -0.00022466
Au     -10.88689026     -10.88689032      -7.82151426        0       0.04397594       0.00393521       0.00393553      -0.00047625
Au     -12.64325216     -12.64325229      -6.41828389        0       0.00364133       0.00148422       0.00148411       0.00144005
Au     -11.01513408     -11.01513427      -4.85822631        0       0.03717411       0.00231375       0.00231378       0.00241645
Au     -12.78932108     -12.78932139      -3.51203633        0      -0.00969556      -0.00425697      -0.00425703      -0.00240593
Au     -11.09050472     -11.09050488      -1.96084974        0       0.04200957       0.00215065       0.00215064       0.00057236
Au     -12.95215465      -9.70426687     -16.14260570        0       0.36109855      -0.00043559      -0.00006064       0.00032007
Au     -11.28210950      -8.06732833     -14.63686326        0       0.07780678      -0.00015205       0.00232557       0.00235684
Au     -12.41848425      -9.44187070     -12.41848423        0       0.04154303       0.00219627      -0.00022691       0.00219640
Au     -10.88689085      -7.82151485     -10.88689086        0       0.04397680       0.00393115      -0.00048121       0.00393152
Au     -12.91314398      -9.51570574      -9.51570556        0       0.01405917       0.00066792       0.00136691       0.00136745
Au     -11.36414182      -7.89468035      -7.89467998        0       0.00202925      -0.00188201      -0.00018699      -0.00018554
Au     -13.00066994      -9.73555598      -6.38832865        0       0.02235474       0.00301589       0.00125068      -0.00256974
Au     -11.40684703      -8.04752842      -4.78040486        0       0.01408194      -0.00140942       0.00013912      -0.00102831
Au     -13.12522736      -9.84177779      -3.46262941        0       0.03720920       0.00216552       0.00165376      -0.00309811
Au     -11.43070216      -8.08904197      -1.83920516        0       0.03442454      -0.00116977      -0.00038173       0.00174903
Au     -13.14359284      -6.79151272     -16.22161832        0       0.41900550       0.00018514       0.00193185       0.00057280
Au     -11.44001758      -5.09919234     -14.82400687        0       0.12882611      -0.00007981      -0.00300180       0.00175908
Au     -12.64325225      -6.41828385     -12.64325230        0       0.00364141       0.00148230       0.00143893       0.00148231
Au     -11.01513492      -4.85822631     -11.01513499        0       0.03717480       0.00230893       0.00241307       0.00230910
Au     -13.00066974      -6.38832861      -9.73555578        0       0.02235470       0.00301542      -0.00257027       0.00125156
Au     -11.40684717      -4.78040485      -8.04752812        0       0.01408182      -0.00140871      -0.00102953       0.00014165
Au     -12.90629213      -6.20701557      -6.20701569        0       0.05523613      -0.00477548      -0.00057303      -0.00057212
Au     -11.24377632      -4.67122454      -4.67122421        0       0.05294736      -0.00049762      -0.00022727      -0.00022725
Au     -13.12834633      -6.28466705      -3.27093331        0       0.01172286       0.00095077      -0.00207392      -0.00408788
Au     -11.34583590      -4.80305273      -1.71457931        0       0.02799470      -0.00078228      -0.00346237       0.00121773
Au     -12.97051212      -3.14387090     -15.88102531        0       0.37232863       0.00007963       0.00082249       0.00293103
Au     -11.23114781      -1.50293563     -14.51213842        0       0.09007765       0.00189557      -0.00206239       0.00502927
Au     -12.78932133      -3.51203618     -12.78932147        0      -0.00969564      -0.00425855      -0.00240620      -0.00425854
Au     -11.09050574      -1.96084970     -11.09050580        0       0.04200983       0.00214742       0.00057176       0.00214753
Au     -13.12522741      -3.46262919      -9.84177746        0       0.03720911       0.00216562      -0.00309842       0.00165493
Au     -11.43070224      -1.83920492      -8.08904136        0       0.03442386      -0.00116510       0.00174841      -0.00037824
Au     -13.12834645      -3.27093342      -6.28466725        0       0.01172287       0.00095080      -0.00408815      -0.00207344
Au     -11.34583627      -1.71457958      -4.80305280        0       0.02799480      -0.00078028       0.00121533      -0.00346200
Au     -13.25816523      -3.32312354      -3.32312369        0       0.01048475      -0.00627171      -0.00321723      -0.00321673
Au     -11.48947899      -1.73932307      -1.73932259        0       0.03610522       0.00413779      -0.00168249      -0.00168050
Au      -9.79841422     -15.70082801     -15.70082791        0       0.46123373      -0.00266221       0.00064930       0.00064938
Au      -8.18937901     -14.13647583     -14.13647581        0       0.18132475      -0.00539714       0.00041435       0.00041442
Au      -9.70426701     -16.14260574     -12.95215477        0       0.36109849      -0.00006072       0.00031974      -0.00043537
Au      -8.06732845     -14.63686340     -11.28210963        0       0.07780679       0.00232537       0.00235691      -0.00015206
Au      -9.39247991     -16.09432663      -9.39247992        0       0.36140375      -0.00143226      -0.00095169      -0.00143223
Au      -7.88007904     -14.37972023      -7.88007897        0       0.13479826      -0.00120938      -0.00187415      -0.00120911
Au      -9.50210098     -16.14279280      -6.57687717        0       0.35932148      -0.00180829      -0.00601352      -0.00523696
Au      -7.95687889     -14.63944016      -4.91193286        0       0.11131171      -0.00303041      -0.00430877       0.00014256
Au      -9.68369616     -15.94515898      -3.24861481        0       0.36166732      -0.00083117       0.00135681       0.00247340
Au      -8.18677696     -14.35276615      -1.57445786        0       0.09655372       0.00056331      -0.00012350      -0.00098772
Au      -9.70426719     -12.95215505     -16.14260585        0       0.36109852      -0.00006056      -0.00043527       0.00031989
Au      -8.06732842     -11.28210987     -14.63686364        0       0.07780681       0.00232543      -0.00015213       0.00235679
Au      -9.44187090     -12.41848430     -12.41848433        0       0.04154292      -0.00022585       0.00219729       0.00219732
Au      -7.82151482     -10.88689076     -10.88689071        0       0.04397655      -0.00048119       0.00393106       0.00393111
Au      -9.51570545     -12.91314357      -9.51570552        0       0.01405913       0.00136660       0.00066822       0.00136713
Au      -7.89467978     -11.36414151      -7.89467968        0       0.00202917      -0.00018841      -0.00188326      -0.00018670
Au      -9.73555553     -13.00066966      -6.38832875        0       0.02235481       0.00125093       0.00301603      -0.00256940
Au      -8.04752801     -11.40684681      -4.78040499        0       0.01408200       0.00013921      -0.00141003      -0.00102799
Au      -9.84177681     -13.12522711      -3.46262926        0       0.03720915       0.00165374       0.00216557      -0.00309817
Au      -8.08904085     -11.43070168      -1.83920474        0       0.03442440      -0.00038241      -0.00117038       0.00174936
Au      -9.39247966      -9.39247969     -16.09432631        0       0.36140376      -0.00143223      -0.00143228      -0.00095181
Au      -7.88007888      -7.88007877     -14.37971996        0       0.13479830      -0.00120929      -0.00120930      -0.00187439
Au      -9.51570549      -9.51570574     -12.91314384        0       0.01405916       0.00136649       0.00136649       0.00066746
Au      -7.89468002      -7.89468029     -11.36414193        0       0.00202928      -0.00018876      -0.00018850      -0.00188441
Au      -9.10593030      -9.10593033      -9.10592995        0       0.09964125       0.00802841       0.00802862       0.00803115
Au      -7.56923626      -7.56923627      -7.56923456        0       0.11569402      -0.00858000      -0.00857618      -0.00857458
Au      -9.32660279      -9.32660301      -6.26763688        0       0.04132057       0.00124761       0.00124858       0.00242794
Au      -7.74986134      -7.74986054      -4.74604988        0       0.07598010      -0.00114717      -0.00114801       0.00386208
Au      -9.39520665      -9.39520702      -3.27629701        0       0.05484777       0.00186015       0.00186087       0.00127167
Au      -7.92869545      -7.92869601      -1.46753977        0       0.02481581      -0.00038152      -0.00038062       0.00068579
Au      -9.50210070      -6.57687686     -16.14279247        0       0.35932145      -0.00180858      -0.00523714      -0.00601371
Au      -7.95687875      -4.91193263     -14.63943977        0       0.11131173      -0.00303050       0.00014247      -0.00430905
Au      -9.73555561      -6.38832866     -13.00066965        0       0.02235473       0.00125122      -0.00257008       0.00301515
Au      -8.04752812      -4.78040487     -11.40684722        0       0.01408185       0.00014038      -0.00102888      -0.00141003
Au      -9.32660523      -6.26763960      -9.32660524        0       0.04132241       0.00124517       0.00242098       0.00124624
Au      -7.74986686      -4.74605757      -7.74986614        0       0.07598371      -0.00114846       0.00386499      -0.00114744
Au      -9.75942634      -6.32718359      -6.32718260        0       0.01194894      -0.00187488      -0.00070344      -0.00070086
Au      -8.10098473      -4.75779374      -4.75779114        0       0.03761076       0.00230197       0.00023437       0.00023296
Au      -9.67986937      -6.47461623      -3.20620824        0       0.04687147      -0.00191906      -0.00155816       0.00024027
Au      -8.18675546      -4.90160659      -1.49922656        0       0.02974509       0.00059373      -0.00033794      -0.00127459
Au      -9.68369613      -3.24861492     -15.94515890        0       0.36166726      -0.00083150       0.00247332       0.00135612
Au      -8.18677683      -1.57445803     -14.35276633        0       0.09655383       0.00056405      -0.00098867      -0.00012434
Au      -9.84177705      -3.46262911     -13.12522732        0       0.03720910       0.00165454      -0.00309833       0.00216538
Au      -8.08904100      -1.83920467     -11.43070215        0       0.03442387      -0.00037969       0.00174906      -0.00116636
Au      -9.39520972      -3.27629926      -9.39520980        0       0.05484952       0.00185890       0.00126717       0.00185976
Au      -7.92870411      -1.46754450      -7.92870420        0       0.02481825      -0.00037227       0.00069625      -0.00037118
Au      -9.67986912      -3.20620923      -6.47461487        0       0.04687013      -0.00191137       0.00024147      -0.00155699
Au      -8.18675426      -1.49922799      -4.90160084        0       0.02974472       0.00060437      -0.00127662      -0.00034002
Au      -9.58091876      -3.12560209      -3.12560100        0       0.07651574       0.00039874      -0.00210493      -0.00210348
Au      -8.14834960      -1.49166206      -1.49165948        0       0.04395023       0.00222029      -0.00215917      -0.00216952
Au      -7.04662229     -15.82408749     -15.82408727        0       0.55582138       0.00014313       0.00403844       0.00403859
Au      -5.07738965     -14.43583375     -14.43583369        0       0.11660280      -0.00614052       0.00084465       0.00084466
Au      -6.79151291     -16.22161858     -13.14359297        0       0.41900550       0.00193196       0.00057321       0.00018515
Au      -5.09919239     -14.82400717     -11.44001776        0       0.12882609      -0.00300182       0.00175972      -0.00007967
Au      -6.57687706     -16.14279267      -9.50210101        0       0.35932141      -0.00523698      -0.00601348      -0.00180806
Au      -4.91193287     -14.63944002      -7.95687873        0       0.11131165       0.00014239      -0.00430865      -0.00302999
Au      -6.60801805     -16.35511353      -6.60801806        0       0.41908897      -0.00177332      -0.00085122      -0.00177333
Au      -4.88690550     -15.04529600      -4.88690545        0       0.12268104       0.00207807      -0.00516339       0.00207807
Au      -6.67937151     -16.07463519      -3.00217815        0       0.38813335      -0.00436385      -0.00552774      -0.00029935
Au      -4.86693799     -14.75964967      -1.47549356        0       0.12189918      -0.00307361      -0.00260737      -0.00273979
Au      -6.79151303     -13.14359338     -16.22161880        0       0.41900557       0.00193196       0.00018516       0.00057329
Au      -5.09919246     -11.44001824     -14.82400734        0       0.12882612      -0.00300169      -0.00007976       0.00175970
Au      -6.41828409     -12.64325246     -12.64325239        0       0.00364144       0.00143914       0.00148260       0.00148272
Au      -4.85822714     -11.01513507     -11.01513496        0       0.03717480       0.00241399       0.00230843       0.00230856
Au      -6.38832892     -13.00066998      -9.73555562        0       0.02235473      -0.00257004       0.00301540       0.00125134
Au      -4.78040560     -11.40684729      -8.04752776        0       0.01408174      -0.00102896      -0.00141012       0.00014176
Au      -6.20701603     -12.90629302      -6.20701575        0       0.05523628      -0.00057400      -0.00477694      -0.00057333
Au      -4.67122524     -11.24377729      -4.67122492        0       0.05294768      -0.00022939      -0.00049920      -0.00022836
Au      -6.28466773     -13.12834712      -3.27093370        0       0.01172283      -0.00207427       0.00094952      -0.00408795
Au      -4.80305364     -11.34583675      -1.71457966        0       0.02799485      -0.00346253      -0.00078292       0.00121707
Au      -6.57687659      -9.50210076     -16.14279216        0       0.35932131      -0.00523707      -0.00180819      -0.00601357
Au      -4.91193260      -7.95687843     -14.63943942        0       0.11131166       0.00014247      -0.00303020      -0.00430881
Au      -6.38832887      -9.73555591     -13.00067017        0       0.02235470      -0.00257019       0.00125075       0.00301500
Au      -4.78040550      -8.04752817     -11.40684757        0       0.01408172      -0.00102863       0.00014041      -0.00141083
Au      -6.26763940      -9.32660484      -9.32660463        0       0.04132265       0.00241660       0.00124071       0.00124082
Au      -4.74605827      -7.74986696      -7.74986704        0       0.07598318       0.00387537      -0.00113467      -0.00113282
Au      -6.32718353      -9.75942565      -6.32718248        0       0.01194909      -0.00070480      -0.00187628      -0.00070115
Au      -4.75779475      -8.10098455      -4.75779189        0       0.03761055       0.00024352       0.00231368       0.00023878
Au      -6.47461597      -9.67986892      -3.20620876        0       0.04687154      -0.00155883      -0.00191990       0.00023911
Au      -4.90160741      -8.18675510      -1.49922709        0       0.02974535      -0.00033517       0.00059429      -0.00127703
Au      -6.60801761      -6.60801765     -16.35511299        0       0.41908890      -0.00177327      -0.00177339      -0.00085146
Au      -4.88690513      -4.88690507     -15.04529550        0       0.12268099       0.00207798       0.00207774      -0.00516383
Au      -6.20701601      -6.20701562     -12.90629270        0       0.05523627      -0.00057356      -0.00057380      -0.00477745
Au      -4.67122493      -4.67122494     -11.24377730        0       0.05294763      -0.00023038      -0.00022937      -0.00050035
Au      -6.32718379      -6.32718373      -9.75942694        0       0.01194930      -0.00070795      -0.00070688      -0.00187850
Au      -4.75779552      -4.75779525      -8.10098766        0       0.03761257       0.00023118       0.00022784       0.00230131
Au      -6.02088776      -6.02088673      -6.02088646        0       0.17615323       0.01826630       0.01825854       0.01825412
Au      -4.51751581      -4.51751650      -4.51751151        0       0.10671895      -0.01056442      -0.01056347      -0.01058302
Au      -6.26396717      -6.26396589      -3.06249837        0       0.03213052      -0.00104171      -0.00104476       0.00039999
Au      -4.67887766      -4.67887793      -1.58506189        0       0.05082371       0.00425198       0.00425109       0.00349126
Au      -6.67937138      -3.00217838     -16.07463528        0       0.38813338      -0.00436372      -0.00029938      -0.00552811
Au      -4.86693822      -1.47549351     -14.75964964        0       0.12189916      -0.00307337      -0.00274030      -0.00260796
Au      -6.28466762      -3.27093357     -13.12834689        0       0.01172284      -0.00207402      -0.00408787       0.00094963
Au      -4.80305346      -1.71457939     -11.34583700        0       0.02799487      -0.00346278       0.00121744      -0.00078171
Au      -6.47461541      -3.20620912      -9.67986943        0       0.04687028      -0.00155941       0.00024323      -0.00191322
Au      -4.90160242      -1.49922687      -8.18675496        0       0.02974459      -0.00033889      -0.00127438       0.00060378
Au      -6.26397969      -3.06251027      -6.26397854        0       0.03213233      -0.00101317       0.00043672      -0.00101528
Au      -4.67889118      -1.58507738      -4.67888975        0       0.05081951       0.00428178       0.00352117       0.00427527
Au      -6.59189321      -3.14946437      -3.14945781        0       0.01163980       0.00451173       0.00037972       0.00037207
Au      -4.91755770      -1.61738164      -1.61737117        0       0.03916100      -0.00080077       0.00075973       0.00074978
Au      -2.86076737     -15.64862328     -15.64862306        0       0.56564065      -0.00120634       0.00182782       0.00182792
Au      -1.44043465     -14.07724815     -14.07724813        0       0.22591613      -0.00143196       0.00225046       0.00225054
Au      -3.14387113     -15.88102588     -12.97051227        0       0.37232872       0.00082197       0.00293075       0.00007976
Au      -1.50293625     -14.51213899     -11.23114773        0       0.09007773      -0.00206119       0.00503036       0.00189553
Au      -3.24861513     -15.94515915      -9.68369604        0       0.36166734       0.00247273       0.00135640      -0.00083105
Au      -1.57445822     -14.35276628      -8.18677697        0       0.09655382      -0.00098812      -0.00012375       0.00056373
Au      -3.00217817     -16.07463527      -6.67937150        0       0.38813335      -0.00029980      -0.00552812      -0.00436353
Au      -1.47549383     -14.75964980      -4.86693773        0       0.12189922      -0.00273980      -0.00260753      -0.00307344
Au      -3.07056764     -16.08130854      -3.07056738        0       0.38897062       0.00643321      -0.00599995       0.00643352
Au      -1.54130969     -14.47145084      -1.54130970        0       0.11048475       0.00090479       0.00224836       0.00090511
Au      -3.14387110     -12.97051262     -15.88102607        0       0.37232880       0.00082203       0.00007971       0.00293077
Au      -1.50293630     -11.23114785     -14.51213945        0       0.09007776      -0.00206107       0.00189545       0.00503027
Au      -3.51203651     -12.78932145     -12.78932128        0      -0.00969559      -0.00240598      -0.00425849      -0.00425841
Au      -1.96085025     -11.09050569     -11.09050559        0       0.04200999       0.00057135       0.00214590       0.00214602
Au      -3.46262953     -13.12522726      -9.84177697        0       0.03720903      -0.00309831       0.00216510       0.00165472
Au      -1.83920529     -11.43070179      -8.08904081        0       0.03442371       0.00174956      -0.00116718      -0.00037903
Au      -3.27093372     -13.12834708      -6.28466748        0       0.01172281      -0.00408803       0.00094997      -0.00207398
Au      -1.71458021     -11.34583641      -4.80305298        0       0.02799485       0.00121482      -0.00078200      -0.00346161
Au      -3.32312429     -13.25816588      -3.32312402        0       0.01048475      -0.00321671      -0.00627115      -0.00321671
Au      -1.73932326     -11.48947921      -1.73932280        0       0.03610528      -0.00168597       0.00413951      -0.00168401
Au      -3.24861558      -9.68369587     -15.94515916        0       0.36166735       0.00247257      -0.00083139       0.00135632
Au      -1.57445863      -8.18677692     -14.35276636        0       0.09655382      -0.00098804       0.00056354      -0.00012399
Au      -3.46262960      -9.84177754     -13.12522742        0       0.03720907      -0.00309816       0.00165434       0.00216481
Au      -1.83920545      -8.08904157     -11.43070219        0       0.03442386       0.00174988      -0.00037980      -0.00116782
Au      -3.27630024      -9.39521007      -9.39520979        0       0.05485012       0.00126345       0.00185510       0.00185525