91
Lattice="34.3296 0.0 0.0 0.0 34.3296 0.0 0.0 0.0 34.3296" Properties=species:S:1:pos:R:3:spacegroup_kinds:I:1:energies:R:1:forces:R:3 energy=37.07864672694532 free_energy=37.07864672694532 stress="-6.349433217697598e-06 1.719820408253354e-15 -5.158187950437821e-16 1.719820408253354e-15 -6.3494332176799475e-06 -8.456078210070198e-16 -5.158187950437821e-16 -8.456078210070198e-16 -6.349433217692241e-06" pbc="T T T"
Au      -4.48461693      -4.48461693      -4.48461693        0       0.68190997       0.01140291       0.01140291       0.01140291
Au      -4.61515018      -4.61515018      -1.77526685        0       0.60731327      -0.01094720      -0.01094720      -0.00500757
Au      -4.61515018      -1.77526685      -4.61515018        0       0.60731327      -0.01094720      -0.00500757      -0.01094720
Au      -4.85614616      -1.62226535      -1.62226535        0       0.38412583       0.02560063       0.00243820       0.00243820
Au      -1.77526685      -4.61515018      -4.61515018        0       0.60731327      -0.00500757      -0.01094720      -0.01094720
Au      -1.62226535      -4.85614616      -1.62226535        0       0.38412583       0.00243820       0.02560063       0.00243820
Au      -1.62226535      -1.62226535      -4.85614616        0       0.38412583       0.00243820       0.00243820       0.02560063
Au      -2.99105528      -2.99105528      -2.99105528        0       0.54511774      -0.02510973      -0.02510973      -0.02510973
Au      -1.50055230      -1.50055230      -1.50055230        0       0.10036222       0.00884308       0.00884308       0.00884308
Au      -4.61515018      -4.61515018       1.77526685        0       0.60731327      -0.01094720      -0.01094720       0.00500757
Au      -4.48461693      -4.48461693       4.48461693        0       0.68190997       0.01140291       0.01140291      -0.01140291
Au      -4.85614616      -1.62226535       1.62226535        0       0.38412583       0.02560063       0.00243820      -0.00243820
Au      -4.61515018      -1.77526685       4.61515018        0       0.60731327      -0.01094720      -0.00500757       0.01094720
Au      -1.62226535      -4.85614616       1.62226535        0       0.38412583       0.00243820       0.02560063      -0.00243820
Au      -1.77526685      -4.61515018       4.61515018        0       0.60731327      -0.00500757      -0.01094720       0.01094720
Au      -3.18911062      -3.18911062       0.00000000        0       0.11953755      -0.01499732      -0.01499732      -0.00000000
Au      -1.50055230      -1.50055230       1.50055230        0       0.10036222       0.00884308       0.00884308      -0.00884308
Au      -2.99105528      -2.99105528       2.99105528        0       0.54511774      -0.02510973      -0.02510973       0.02510973
Au      -1.62226535      -1.62226535       4.85614616        0       0.38412583       0.00243820       0.00243820      -0.02560063
Au      -4.61515018       1.77526685      -4.61515018        0       0.60731327      -0.01094720       0.00500757      -0.01094720
Au      -4.85614616       1.62226535      -1.62226535        0       0.38412583       0.02560063      -0.00243820       0.00243820
Au      -4.48461693       4.48461693      -4.48461693        0       0.68190997       0.01140291      -0.01140291       0.01140291
Au      -4.61515018       4.61515018      -1.77526685        0       0.60731327      -0.01094720       0.01094720      -0.00500757
Au      -1.62226535       1.62226535      -4.85614616        0       0.38412583       0.00243820      -0.00243820       0.02560063
Au      -3.18911062      -0.00000000      -3.18911062        0       0.11953755      -0.01499732       0.00000000      -0.01499732
Au      -1.50055230       1.50055230      -1.50055230        0       0.10036222       0.00884308      -0.00884308       0.00884308
Au      -1.77526685       4.61515018      -4.61515018        0       0.60731327      -0.00500757       0.01094720      -0.01094720
Au      -2.99105528       2.99105528      -2.99105528        0       0.54511774      -0.02510973       0.02510973      -0.02510973
Au      -1.62226535       4.85614616      -1.62226535        0       0.38412583       0.00243820      -0.02560063       0.00243820
Au      -4.85614616       1.62226535       1.62226535        0       0.38412583       0.02560063      -0.00243820      -0.00243820
Au      -4.61515018       1.77526685       4.61515018        0       0.60731327      -0.01094720       0.00500757       0.01094720
Au      -4.61515018       4.61515018       1.77526685        0       0.60731327      -0.01094720       0.01094720       0.00500757
Au      -4.48461693       4.48461693       4.48461693        0       0.68190997       0.01140291      -0.01140291      -0.01140291
Au      -3.40617691      -0.00000000       0.00000000        0       0.10427974       0.00483728       0.00000000      -0.00000000
Au      -1.50055230       1.50055230       1.50055230        0       0.10036222       0.00884308      -0.00884308      -0.00884308
Au      -3.18911062      -0.00000000       3.18911062        0       0.11953755      -0.01499732       0.00000000       0.01499732
Au      -1.62226535       1.62226535       4.85614616        0       0.38412583       0.00243820      -0.00243820      -0.02560063
Au      -3.18911062       3.18911062       0.00000000        0       0.11953755      -0.01499732       0.01499732      -0.00000000
Au      -1.62226535       4.85614616       1.62226535        0       0.38412583       0.00243820      -0.02560063      -0.00243820
Au      -2.99105528       2.99105528       2.99105528        0       0.54511774      -0.02510973       0.02510973       0.02510973
Au      -1.77526685       4.61515018       4.61515018        0       0.60731327      -0.00500757       0.01094720       0.01094720
Au       1.77526685      -4.61515018      -4.61515018        0       0.60731327       0.00500757      -0.01094720      -0.01094720
Au       1.62226535      -4.85614616      -1.62226535        0       0.38412583      -0.00243820       0.02560063       0.00243820
Au       1.62226535      -1.62226535      -4.85614616        0       0.38412583      -0.00243820       0.00243820       0.02560063
Au      -0.00000000      -3.18911062      -3.18911062        0       0.11953755       0.00000000      -0.01499732      -0.01499732
Au       1.50055230      -1.50055230      -1.50055230        0       0.10036222      -0.00884308       0.00884308       0.00884308
Au       4.48461693      -4.48461693      -4.48461693        0       0.68190997      -0.01140291       0.01140291       0.01140291
Au       4.61515018      -4.61515018      -1.77526685        0       0.60731327       0.01094720      -0.01094720      -0.00500757
Au       4.61515018      -1.77526685      -4.61515018        0       0.60731327       0.01094720      -0.00500757      -0.01094720
Au       2.99105528      -2.99105528      -2.99105528        0       0.54511774       0.02510973      -0.02510973      -0.02510973
Au       4.85614616      -1.62226535      -1.62226535        0       0.38412583      -0.02560063       0.00243820       0.00243820
Au       1.62226535      -4.85614616       1.62226535        0       0.38412583      -0.00243820       0.02560063      -0.00243820
Au       1.77526685      -4.61515018       4.61515018        0       0.60731327       0.00500757      -0.01094720       0.01094720
Au      -0.00000000      -3.40617691       0.00000000        0       0.10427974       0.00000000       0.00483728      -0.00000000
Au       1.50055230      -1.50055230       1.50055230        0       0.10036222      -0.00884308       0.00884308      -0.00884308
Au      -0.00000000      -3.18911062       3.18911062        0       0.11953755       0.00000000      -0.01499732       0.01499732
Au       1.62226535      -1.62226535       4.85614616        0       0.38412583      -0.00243820       0.00243820      -0.02560063
Au       4.61515018      -4.61515018       1.77526685        0       0.60731327       0.01094720      -0.01094720       0.00500757
Au       4.48461693      -4.48461693       4.48461693        0       0.68190997      -0.01140291       0.01140291      -0.01140291
Au       3.18911062      -3.18911062      -0.00000000        0       0.11953755       0.01499732      -0.01499732       0.00000000
Au       4.85614616      -1.62226535       1.62226535        0       0.38412583      -0.02560063       0.00243820      -0.00243820
Au       2.99105528      -2.99105528       2.99105528        0       0.54511774       0.02510973      -0.02510973       0.02510973
Au       4.61515018      -1.77526685       4.61515018        0       0.60731327       0.01094720      -0.00500757       0.01094720
Au       1.62226535       1.62226535      -4.85614616        0       0.38412583      -0.00243820      -0.00243820       0.02560063
Au      -0.00000000       0.00000000      -3.40617691        0       0.10427974      -0.00000000      -0.00000000       0.00483728
Au       1.50055230       1.50055230      -1.50055230        0       0.10036222      -0.00884308      -0.00884308       0.00884308
Au       1.77526685       4.61515018      -4.61515018        0       0.60731327       0.00500757       0.01094720      -0.01094720
Au      -0.00000000       3.18911062      -3.18911062        0       0.11953755       0.00000000       0.01499732      -0.01499732
Au       1.62226535       4.85614616      -1.62226535        0       0.38412583      -0.00243820      -0.02560063       0.00243820
Au       4.61515018       1.77526685      -4.61515018        0       0.60731327       0.01094720       0.00500757      -0.01094720
Au       3.18911062       0.00000000      -3.18911062        0       0.11953755       0.01499732       0.00000000      -0.01499732
Au       4.85614616       1.62226535      -1.62226535        0       0.38412583      -0.02560063      -0.00243820       0.00243820
Au       4.48461693       4.48461693      -4.48461693        0       0.68190997      -0.01140291      -0.01140291       0.01140291
Au       2.99105528       2.99105528      -2.99105528        0       0.54511774       0.02510973       0.02510973      -0.02510973
Au       4.61515018       4.61515018      -1.77526685        0       0.60731327       0.01094720       0.01094720      -0.00500757
Au       0.00000000       0.00000000       0.00000000        0       0.60486007      -0.00000000      -0.00000000      -0.00000000
Au       1.50055230       1.50055230       1.50055230        0       0.10036222      -0.00884308      -0.00884308      -0.00884308
Au      -0.00000000      -0.00000000       3.40617691        0       0.10427974       0.00000000       0.00000000      -0.00483728
Au       1.62226535       1.62226535       4.85614616        0       0.38412583      -0.00243820      -0.00243820      -0.02560063
Au       0.00000000       3.40617691      -0.00000000        0       0.10427974      -0.00000000      -0.00483728       0.00000000
Au       1.62226535       4.85614616       1.62226535        0       0.38412583      -0.00243820      -0.02560063      -0.00243820
Au       0.00000000       3.18911062       3.18911062        0       0.11953755       0.00000000       0.01499732       0.01499732
Au       1.77526685       4.61515018       4.61515018        0       0.60731327       0.00500757       0.01094720       0.01094720
Au       3.40617691       0.00000000      -0.00000000        0       0.10427974      -0.00483728      -0.00000000       0.00000000
Au       4.85614616       1.62226535       1.62226535        0       0.38412583      -0.02560063      -0.00243820      -0.00243820
Au       3.18911062      -0.00000000       3.18911062        0       0.11953755       0.01499732       0.00000000       0.01499732
Au       4.61515018       1.77526685       4.61515018        0       0.60731327       0.01094720       0.00500757       0.01094720
Au       3.18911062       3.18911062       0.00000000        0       0.11953755       0.01499732       0.01499732      -0.00000000
Au       4.61515018       4.61515018       1.77526685        0       0.60731327       0.01094720       0.01094720       0.00500757
Au       2.99105528       2.99105528       2.99105528        0       0.54511774       0.02510973       0.02510973       0.02510973
Au       4.48461693       4.48461693       4.48461693        0       0.68190997      -0.01140291      -0.01140291      -0.01140291
