671
Properties=species:S:1:pos:R:3:energies:R:1:forces:R:3 energy=109.46841144674318 free_energy=109.46841144674318 pbc="F F F"
Au       0.00000000       0.00000000      -0.00000000       0.03608224      -0.00000000      -0.00000000       0.00000000
Au       1.60916395       1.60916395       1.60916395       0.03359985      -0.01271349      -0.01271349      -0.01271349
Au       1.60916395      -1.60916395       1.60916395       0.03359985      -0.01271349       0.01271349      -0.01271349
Au      -1.60916395       1.60916395       1.60916395       0.03359985       0.01271349      -0.01271349      -0.01271349
Au      -1.60916395      -1.60916395       1.60916395       0.03359985       0.01271349       0.01271349      -0.01271349
Au       1.60916395       1.60916395      -1.60916395       0.03359985      -0.01271349      -0.01271349       0.01271349
Au       1.60916395      -1.60916395      -1.60916395       0.03359985      -0.01271349       0.01271349       0.01271349
Au      -1.60916395       1.60916395      -1.60916395       0.03359985       0.01271349      -0.01271349       0.01271349
Au      -1.60916395      -1.60916395      -1.60916395       0.03359985       0.01271349       0.01271349       0.01271349
Au       3.21936513      -0.00000000       0.00000000       0.03752777      -0.03065163       0.00000000       0.00000000
Au      -3.21936513       0.00000000      -0.00000000       0.03752777       0.03065163      -0.00000000       0.00000000
Au       0.00000000       3.21936513       0.00000000       0.03752777      -0.00000000      -0.03065163      -0.00000000
Au       0.00000000      -3.21936513       0.00000000       0.03752777       0.00000000       0.03065163       0.00000000
Au      -0.00000000       0.00000000       3.21936513       0.03752777       0.00000000      -0.00000000      -0.03065163
Au       0.00000000       0.00000000      -3.21936513       0.03752777      -0.00000000      -0.00000000       0.03065163
Au       3.20560782       3.20560782       3.20560782       0.03838846      -0.01303482      -0.01303482      -0.01303482
Au       3.20560782      -3.20560782       3.20560782       0.03838846      -0.01303482       0.01303482      -0.01303482
Au      -3.20560782       3.20560782       3.20560782       0.03838846       0.01303482      -0.01303482      -0.01303482
Au      -3.20560782      -3.20560782       3.20560782       0.03838846       0.01303482       0.01303482      -0.01303482
Au       3.20560782       3.20560782      -3.20560782       0.03838846      -0.01303482      -0.01303482       0.01303482
Au       3.20560782      -3.20560782      -3.20560782       0.03838846      -0.01303482       0.01303482       0.01303482
Au      -3.20560782       3.20560782      -3.20560782       0.03838846       0.01303482      -0.01303482       0.01303482
Au      -3.20560782      -3.20560782      -3.20560782       0.03838846       0.01303482       0.01303482       0.01303482
Au       6.42010648      -0.00000000       0.00000000       0.04905042      -0.00989135       0.00000000       0.00000000
Au      -6.42010648       0.00000000      -0.00000000       0.04905042       0.00989135       0.00000000       0.00000000
Au       0.00000000       6.42010648       0.00000000       0.04905042       0.00000000      -0.00989135       0.00000000
Au       0.00000000      -6.42010648       0.00000000       0.04905042      -0.00000000       0.00989135       0.00000000
Au       0.00000000       0.00000000       6.42010648       0.04905042      -0.00000000      -0.00000000      -0.00989135
Au      -0.00000000       0.00000000      -6.42010648       0.04905042       0.00000000       0.00000000       0.00989135
Au       3.23199982       0.00000000       3.23199982       0.03056906      -0.02664019      -0.00000000      -0.02664019
Au       0.00000000       3.23199982       3.23199982       0.03056906      -0.00000000      -0.02664019      -0.02664019
Au      -0.00000000      -3.23199982       3.23199982       0.03056906      -0.00000000       0.02664019      -0.02664019
Au      -3.23199982      -0.00000000       3.23199982       0.03056906       0.02664019       0.00000000      -0.02664019
Au       3.23199982       3.23199982       0.00000000       0.03056906      -0.02664019      -0.02664019      -0.00000000
Au       3.23199982      -3.23199982       0.00000000       0.03056906      -0.02664019       0.02664019      -0.00000000
Au       3.23199982       0.00000000      -3.23199982       0.03056906      -0.02664019      -0.00000000       0.02664019
Au      -3.23199982       3.23199982      -0.00000000       0.03056906       0.02664019      -0.02664019       0.00000000
Au       0.00000000       3.23199982      -3.23199982       0.03056906      -0.00000000      -0.02664019       0.02664019
Au      -3.23199982      -3.23199982       0.00000000       0.03056906       0.02664019       0.02664019      -0.00000000
Au       0.00000000      -3.23199982      -3.23199982       0.03056906      -0.00000000       0.02664019       0.02664019
Au      -3.23199982      -0.00000000      -3.23199982       0.03056906       0.02664019       0.00000000       0.02664019
Au       4.83023835       1.60639504       1.60639504       0.03631711      -0.01953133      -0.00417488      -0.00417488
Au       4.83023835      -1.60639504       1.60639504       0.03631711      -0.01953133       0.00417488      -0.00417488
Au       4.83023835       1.60639504      -1.60639504       0.03631711      -0.01953133      -0.00417488       0.00417488
Au       4.83023835      -1.60639504      -1.60639504       0.03631711      -0.01953133       0.00417488       0.00417488
Au      -4.83023835       1.60639504       1.60639504       0.03631711       0.01953133      -0.00417488      -0.00417488
Au      -4.83023835      -1.60639504       1.60639504       0.03631711       0.01953133       0.00417488      -0.00417488
Au      -4.83023835       1.60639504      -1.60639504       0.03631711       0.01953133      -0.00417488       0.00417488
Au      -4.83023835      -1.60639504      -1.60639504       0.03631711       0.01953133       0.00417488       0.00417488
Au       1.60639504       4.83023835       1.60639504       0.03631711      -0.00417488      -0.01953133      -0.00417488
Au      -1.60639504       4.83023835       1.60639504       0.03631711       0.00417488      -0.01953133      -0.00417488
Au       1.60639504       4.83023835      -1.60639504       0.03631711      -0.00417488      -0.01953133       0.00417488
Au      -1.60639504       4.83023835      -1.60639504       0.03631711       0.00417488      -0.01953133       0.00417488
Au       1.60639504      -4.83023835       1.60639504       0.03631711      -0.00417488       0.01953133      -0.00417488
Au      -1.60639504      -4.83023835       1.60639504       0.03631711       0.00417488       0.01953133      -0.00417488
Au       1.60639504      -4.83023835      -1.60639504       0.03631711      -0.00417488       0.01953133       0.00417488
Au      -1.60639504      -4.83023835      -1.60639504       0.03631711       0.00417488       0.01953133       0.00417488
Au       1.60639504       1.60639504       4.83023835       0.03631711      -0.00417488      -0.00417488      -0.01953133
Au       1.60639504      -1.60639504       4.83023835       0.03631711      -0.00417488       0.00417488      -0.01953133
Au      -1.60639504       1.60639504       4.83023835       0.03631711       0.00417488      -0.00417488      -0.01953133
Au      -1.60639504      -1.60639504       4.83023835       0.03631711       0.00417488       0.00417488      -0.01953133
Au       1.60639504       1.60639504      -4.83023835       0.03631711      -0.00417488      -0.00417488       0.01953133
Au       1.60639504      -1.60639504      -4.83023835       0.03631711      -0.00417488       0.00417488       0.01953133
Au      -1.60639504       1.60639504      -4.83023835       0.03631711       0.00417488      -0.00417488       0.01953133
Au      -1.60639504      -1.60639504      -4.83023835       0.03631711       0.00417488       0.00417488       0.01953133
Au       4.78797743       4.78797743       4.78797743       0.03808296      -0.01510470      -0.01510470      -0.01510470
Au       4.78797743      -4.78797743       4.78797743       0.03808296      -0.01510470       0.01510470      -0.01510470
Au      -4.78797743       4.78797743       4.78797743       0.03808296       0.01510470      -0.01510470      -0.01510470
Au      -4.78797743      -4.78797743       4.78797743       0.03808296       0.01510470       0.01510470      -0.01510470
Au       4.78797743       4.78797743      -4.78797743       0.03808296      -0.01510470      -0.01510470       0.01510470
Au       4.78797743      -4.78797743      -4.78797743       0.03808296      -0.01510470       0.01510470       0.01510470
Au      -4.78797743       4.78797743      -4.78797743       0.03808296       0.01510470      -0.01510470       0.01510470
Au      -4.78797743      -4.78797743      -4.78797743       0.03808296       0.01510470       0.01510470       0.01510470
Au       9.61659645      -0.00000000      -0.00000000       0.05380200      -0.00189550       0.00000000       0.00000000
Au      -9.61659645      -0.00000000      -0.00000000       0.05380200       0.00189550       0.00000000       0.00000000
Au      -0.00000000       9.61659645      -0.00000000       0.05380200       0.00000000      -0.00189550      -0.00000000
Au       0.00000000      -9.61659645      -0.00000000       0.05380200      -0.00000000       0.00189550      -0.00000000
Au      -0.00000000       0.00000000       9.61659645       0.05380200       0.00000000       0.00000000      -0.00189550
Au       0.00000000       0.00000000      -9.61659645       0.05380200      -0.00000000      -0.00000000       0.00189550
Au       4.84057795      -1.61339201       4.84057795       0.03272109      -0.01108767      -0.00230342      -0.01108767
Au      -1.61339201       4.84057795       4.84057795       0.03272109      -0.00230342      -0.01108767      -0.01108767
Au      -1.61339201      -4.84057795       4.84057795       0.03272109      -0.00230342       0.01108767      -0.01108767
Au      -4.84057795      -1.61339201       4.84057795       0.03272109       0.01108767      -0.00230342      -0.01108767
Au       4.84057795       4.84057795      -1.61339201       0.03272109      -0.01108767      -0.01108767      -0.00230342
Au       4.84057795      -4.84057795      -1.61339201       0.03272109      -0.01108767       0.01108767      -0.00230342
Au       4.84057795      -1.61339201      -4.84057795       0.03272109      -0.01108767      -0.00230342       0.01108767
Au      -4.84057795       4.84057795      -1.61339201       0.03272109       0.01108767      -0.01108767      -0.00230342
Au      -1.61339201       4.84057795      -4.84057795       0.03272109      -0.00230342      -0.01108767       0.01108767
Au      -4.84057795      -4.84057795      -1.61339201       0.03272109       0.01108767       0.01108767      -0.00230342
Au      -1.61339201      -4.84057795      -4.84057795       0.03272109      -0.00230342       0.01108767       0.01108767
Au      -4.84057795      -1.61339201      -4.84057795       0.03272109       0.01108767      -0.00230342       0.01108767
Au       8.02978234       1.59704026       1.59704026       0.03799998       0.00486870      -0.00151139      -0.00151139
Au       8.02978234      -1.59704026       1.59704026       0.03799998       0.00486870       0.00151139      -0.00151139
Au       8.02978234       1.59704026      -1.59704026       0.03799998       0.00486870      -0.00151139       0.00151139
Au       8.02978234      -1.59704026      -1.59704026       0.03799998       0.00486870       0.00151139       0.00151139
Au      -8.02978234       1.59704026       1.59704026       0.03799998      -0.00486870      -0.00151139      -0.00151139
Au      -8.02978234      -1.59704026       1.59704026       0.03799998      -0.00486870       0.00151139      -0.00151139
Au      -8.02978234       1.59704026      -1.59704026       0.03799998      -0.00486870      -0.00151139       0.00151139
Au      -8.02978234      -1.59704026      -1.59704026       0.03799998      -0.00486870       0.00151139       0.00151139
Au       1.59704026       8.02978234       1.59704026       0.03799998      -0.00151139       0.00486870      -0.00151139
Au      -1.59704026       8.02978234       1.59704026       0.03799998       0.00151139       0.00486870      -0.00151139
Au       1.59704026       8.02978234      -1.59704026       0.03799998      -0.00151139       0.00486870       0.00151139
Au      -1.59704026       8.02978234      -1.59704026       0.03799998       0.00151139       0.00486870       0.00151139
Au       1.59704026      -8.02978234       1.59704026       0.03799998      -0.00151139      -0.00486870      -0.00151139
Au      -1.59704026      -8.02978234       1.59704026       0.03799998       0.00151139      -0.00486870      -0.00151139
Au       1.59704026      -8.02978234      -1.59704026       0.03799998      -0.00151139      -0.00486870       0.00151139
Au      -1.59704026      -8.02978234      -1.59704026       0.03799998       0.00151139      -0.00486870       0.00151139
Au       1.59704026       1.59704026       8.02978234       0.03799998      -0.00151139      -0.00151139       0.00486870
Au       1.59704026      -1.59704026       8.02978234       0.03799998      -0.00151139       0.00151139       0.00486870
Au      -1.59704026       1.59704026       8.02978234       0.03799998       0.00151139      -0.00151139       0.00486870
Au      -1.59704026      -1.59704026       8.02978234       0.03799998       0.00151139       0.00151139       0.00486870
Au       1.59704026       1.59704026      -8.02978234       0.03799998      -0.00151139      -0.00151139      -0.00486870
Au       1.59704026      -1.59704026      -8.02978234       0.03799998      -0.00151139       0.00151139      -0.00486870
Au      -1.59704026       1.59704026      -8.02978234       0.03799998       0.00151139      -0.00151139      -0.00486870
Au      -1.59704026      -1.59704026      -8.02978234       0.03799998       0.00151139       0.00151139      -0.00486870
Au       4.84057795       1.61339201       4.84057795       0.03272109      -0.01108767       0.00230342      -0.01108767
Au       1.61339201       4.84057795       4.84057795       0.03272109       0.00230342      -0.01108767      -0.01108767
Au       1.61339201      -4.84057795       4.84057795       0.03272109       0.00230342       0.01108767      -0.01108767
Au      -4.84057795       1.61339201       4.84057795       0.03272109       0.01108767       0.00230342      -0.01108767
Au       4.84057795       4.84057795       1.61339201       0.03272109      -0.01108767      -0.01108767       0.00230342
Au       4.84057795      -4.84057795       1.61339201       0.03272109      -0.01108767       0.01108767       0.00230342
Au       4.84057795       1.61339201      -4.84057795       0.03272109      -0.01108767       0.00230342       0.01108767
Au      -4.84057795       4.84057795       1.61339201       0.03272109       0.01108767      -0.01108767       0.00230342
Au       1.61339201       4.84057795      -4.84057795       0.03272109       0.00230342      -0.01108767       0.01108767
Au      -4.84057795      -4.84057795       1.61339201       0.03272109       0.01108767       0.01108767       0.00230342
Au       1.61339201      -4.84057795      -4.84057795       0.03272109       0.00230342       0.01108767       0.01108767
Au      -4.84057795       1.61339201      -4.84057795       0.03272109       0.01108767       0.00230342       0.01108767
Au       6.43487816       3.19809408       3.19809408       0.03919511       0.00543556       0.00153507       0.00153507
Au       6.43487816      -3.19809408       3.19809408       0.03919511       0.00543556      -0.00153507       0.00153507
Au       6.43487816       3.19809408      -3.19809408       0.03919511       0.00543556       0.00153507      -0.00153507
Au       6.43487816      -3.19809408      -3.19809408       0.03919511       0.00543556      -0.00153507      -0.00153507
Au      -6.43487816       3.19809408       3.19809408       0.03919511      -0.00543556       0.00153507       0.00153507
Au      -6.43487816      -3.19809408       3.19809408       0.03919511      -0.00543556      -0.00153507       0.00153507
Au      -6.43487816       3.19809408      -3.19809408       0.03919511      -0.00543556       0.00153507      -0.00153507
Au      -6.43487816      -3.19809408      -3.19809408       0.03919511      -0.00543556      -0.00153507      -0.00153507
Au       3.19809408       6.43487816       3.19809408       0.03919511       0.00153507       0.00543556       0.00153507
Au      -3.19809408       6.43487816       3.19809408       0.03919511      -0.00153507       0.00543556       0.00153507
Au       3.19809408       6.43487816      -3.19809408       0.03919511       0.00153507       0.00543556      -0.00153507
Au      -3.19809408       6.43487816      -3.19809408       0.03919511      -0.00153507       0.00543556      -0.00153507
Au       3.19809408      -6.43487816       3.19809408       0.03919511       0.00153507      -0.00543556       0.00153507
Au      -3.19809408      -6.43487816       3.19809408       0.03919511      -0.00153507      -0.00543556       0.00153507
Au       3.19809408      -6.43487816      -3.19809408       0.03919511       0.00153507      -0.00543556      -0.00153507
Au      -3.19809408      -6.43487816      -3.19809408       0.03919511      -0.00153507      -0.00543556      -0.00153507
Au       3.19809408       3.19809408       6.43487816       0.03919511       0.00153507       0.00153507       0.00543556
Au       3.19809408      -3.19809408       6.43487816       0.03919511       0.00153507      -0.00153507       0.00543556
Au      -3.19809408       3.19809408       6.43487816       0.03919511      -0.00153507       0.00153507       0.00543556
Au      -3.19809408      -3.19809408       6.43487816       0.03919511      -0.00153507      -0.00153507       0.00543556
Au       3.19809408       3.19809408      -6.43487816       0.03919511       0.00153507       0.00153507      -0.00543556
Au       3.19809408      -3.19809408      -6.43487816       0.03919511       0.00153507      -0.00153507      -0.00543556
Au      -3.19809408       3.19809408      -6.43487816       0.03919511      -0.00153507       0.00153507      -0.00543556
Au      -3.19809408      -3.19809408      -6.43487816       0.03919511      -0.00153507      -0.00153507      -0.00543556
Au       6.44442682      -0.00000000       3.23907842       0.02921625      -0.01106721       0.00000000      -0.00660510
Au       3.23907842       0.00000000       6.44442682       0.02921625      -0.00660510      -0.00000000      -0.01106721
Au       0.00000000       6.44442682       3.23907842       0.02921625       0.00000000      -0.01106721      -0.00660510
Au       0.00000000       3.23907842       6.44442682       0.02921625       0.00000000      -0.00660510      -0.01106721
Au       0.00000000      -6.44442682       3.23907842       0.02921625      -0.00000000       0.01106721      -0.00660510
Au       0.00000000      -3.23907842       6.44442682       0.02921625      -0.00000000       0.00660510      -0.01106721
Au      -6.44442682       0.00000000       3.23907842       0.02921625       0.01106721       0.00000000      -0.00660510
Au      -3.23907842      -0.00000000       6.44442682       0.02921625       0.00660510      -0.00000000      -0.01106721
Au       6.44442682       3.23907842      -0.00000000       0.02921625      -0.01106721      -0.00660510       0.00000000
Au       3.23907842       6.44442682      -0.00000000       0.02921625      -0.00660510      -0.01106721      -0.00000000
Au       6.44442682      -3.23907842       0.00000000       0.02921625      -0.01106721       0.00660510       0.00000000
Au       3.23907842      -6.44442682      -0.00000000       0.02921625      -0.00660510       0.01106721      -0.00000000
Au       6.44442682      -0.00000000      -3.23907842       0.02921625      -0.01106721       0.00000000       0.00660510
Au       3.23907842       0.00000000      -6.44442682       0.02921625      -0.00660510       0.00000000       0.01106721
Au      -6.44442682       3.23907842      -0.00000000       0.02921625       0.01106721      -0.00660510      -0.00000000
Au      -3.23907842       6.44442682       0.00000000       0.02921625       0.00660510      -0.01106721       0.00000000
Au       0.00000000       6.44442682      -3.23907842       0.02921625       0.00000000      -0.01106721       0.00660510
Au       0.00000000       3.23907842      -6.44442682       0.02921625      -0.00000000      -0.00660510       0.01106721
Au      -6.44442682      -3.23907842       0.00000000       0.02921625       0.01106721       0.00660510      -0.00000000
Au      -3.23907842      -6.44442682      -0.00000000       0.02921625       0.00660510       0.01106721      -0.00000000
Au       0.00000000      -6.44442682      -3.23907842       0.02921625      -0.00000000       0.01106721       0.00660510
Au       0.00000000      -3.23907842      -6.44442682       0.02921625      -0.00000000       0.00660510       0.01106721
Au      -6.44442682       0.00000000      -3.23907842       0.02921625       0.01106721       0.00000000       0.00660510
Au      -3.23907842       0.00000000      -6.44442682       0.02921625       0.00660510      -0.00000000       0.01106721
Au       6.36355032       6.36355032       6.36355032       0.06546136       0.00357699       0.00357699       0.00357699
Au       6.36355032      -6.36355032       6.36355032       0.06546136       0.00357699      -0.00357699       0.00357699
Au      -6.36355032       6.36355032       6.36355032       0.06546136      -0.00357699       0.00357699       0.00357699
Au      -6.36355032      -6.36355032       6.36355032       0.06546136      -0.00357699      -0.00357699       0.00357699
Au       6.36355032       6.36355032      -6.36355032       0.06546136       0.00357699       0.00357699      -0.00357699
Au       6.36355032      -6.36355032      -6.36355032       0.06546136       0.00357699      -0.00357699      -0.00357699
Au      -6.36355032       6.36355032      -6.36355032       0.06546136      -0.00357699       0.00357699      -0.00357699
Au      -6.36355032      -6.36355032      -6.36355032       0.06546136      -0.00357699      -0.00357699      -0.00357699
Au      12.84533695       0.00000000       0.00000000       0.14132936      -0.01963938       0.00000000       0.00000000
Au     -12.84533695       0.00000000       0.00000000       0.14132936       0.01963938      -0.00000000       0.00000000
Au       0.00000000      12.84533695       0.00000000       0.14132936      -0.00000000      -0.01963938      -0.00000000
Au       0.00000000     -12.84533695       0.00000000       0.14132936      -0.00000000       0.01963938      -0.00000000
Au       0.00000000       0.00000000      12.84533695       0.14132936      -0.00000000      -0.00000000      -0.01963938
Au       0.00000000       0.00000000     -12.84533695       0.14132936      -0.00000000       0.00000000       0.01963938
Au       6.45470159      -3.22199351       6.45470159       0.03289694       0.00573290      -0.00983697       0.00573290
Au      -3.22199351       6.45470159       6.45470159       0.03289694      -0.00983697       0.00573290       0.00573290
Au      -3.22199351      -6.45470159       6.45470159       0.03289694      -0.00983697      -0.00573290       0.00573290
Au      -6.45470159      -3.22199351       6.45470159       0.03289694      -0.00573290      -0.00983697       0.00573290
Au       6.45470159       6.45470159      -3.22199351       0.03289694       0.00573290       0.00573290      -0.00983697
Au       6.45470159      -6.45470159      -3.22199351       0.03289694       0.00573290      -0.00573290      -0.00983697
Au       6.45470159      -3.22199351      -6.45470159       0.03289694       0.00573290      -0.00983697      -0.00573290
Au      -6.45470159       6.45470159      -3.22199351       0.03289694      -0.00573290       0.00573290      -0.00983697
Au      -3.22199351       6.45470159      -6.45470159       0.03289694      -0.00983697       0.00573290      -0.00573290
Au      -6.45470159      -6.45470159      -3.22199351       0.03289694      -0.00573290      -0.00573290      -0.00983697
Au      -3.22199351      -6.45470159      -6.45470159       0.03289694      -0.00983697      -0.00573290      -0.00573290
Au      -6.45470159      -3.22199351      -6.45470159       0.03289694      -0.00573290      -0.00983697      -0.00573290
Au      11.25204413       1.58984012       1.58984012       0.06068625       0.00017841      -0.00311119      -0.00311119
Au      11.25204413      -1.58984012       1.58984012       0.06068625       0.00017841       0.00311119      -0.00311119
Au      11.25204413       1.58984012      -1.58984012       0.06068625       0.00017841      -0.00311119       0.00311119
Au      11.25204413      -1.58984012      -1.58984012       0.06068625       0.00017841       0.00311119       0.00311119
Au     -11.25204413       1.58984012       1.58984012       0.06068625      -0.00017841      -0.00311119      -0.00311119
Au     -11.25204413      -1.58984012       1.58984012       0.06068625      -0.00017841       0.00311119      -0.00311119
Au     -11.25204413       1.58984012      -1.58984012       0.06068625      -0.00017841      -0.00311119       0.00311119
Au     -11.25204413      -1.58984012      -1.58984012       0.06068625      -0.00017841       0.00311119       0.00311119
Au       1.58984012      11.25204413       1.58984012       0.06068625      -0.00311119       0.00017841      -0.00311119
Au      -1.58984012      11.25204413       1.58984012       0.06068625       0.00311119       0.00017841      -0.00311119
Au       1.58984012      11.25204413      -1.58984012       0.06068625      -0.00311119       0.00017841       0.00311119
Au      -1.58984012      11.25204413      -1.58984012       0.06068625       0.00311119       0.00017841       0.00311119
Au       1.58984012     -11.25204413       1.58984012       0.06068625      -0.00311119      -0.00017841      -0.00311119
Au      -1.58984012     -11.25204413       1.58984012       0.06068625       0.00311119      -0.00017841      -0.00311119
Au       1.58984012     -11.25204413      -1.58984012       0.06068625      -0.00311119      -0.00017841       0.00311119
Au      -1.58984012     -11.25204413      -1.58984012       0.06068625       0.00311119      -0.00017841       0.00311119
Au       1.58984012       1.58984012      11.25204413       0.06068625      -0.00311119      -0.00311119       0.00017841
Au       1.58984012      -1.58984012      11.25204413       0.06068625      -0.00311119       0.00311119       0.00017841
Au      -1.58984012       1.58984012      11.25204413       0.06068625       0.00311119      -0.00311119       0.00017841
Au      -1.58984012      -1.58984012      11.25204413       0.06068625       0.00311119       0.00311119       0.00017841
Au       1.58984012       1.58984012     -11.25204413       0.06068625      -0.00311119      -0.00311119      -0.00017841
Au       1.58984012      -1.58984012     -11.25204413       0.06068625      -0.00311119       0.00311119      -0.00017841
Au      -1.58984012       1.58984012     -11.25204413       0.06068625       0.00311119      -0.00311119      -0.00017841
Au      -1.58984012      -1.58984012     -11.25204413       0.06068625       0.00311119       0.00311119      -0.00017841
Au       6.46449170      -0.00000000       6.46449170       0.04059943      -0.01041832       0.00000000      -0.01041832
Au      -0.00000000       6.46449170       6.46449170       0.04059943       0.00000000      -0.01041832      -0.01041832
Au       0.00000000      -6.46449170       6.46449170       0.04059943      -0.00000000       0.01041832      -0.01041832
Au      -6.46449170       0.00000000       6.46449170       0.04059943       0.01041832      -0.00000000      -0.01041832
Au       6.46449170       6.46449170       0.00000000       0.04059943      -0.01041832      -0.01041832       0.00000000
Au       6.46449170      -6.46449170       0.00000000       0.04059943      -0.01041832       0.01041832      -0.00000000
Au       6.46449170      -0.00000000      -6.46449170       0.04059943      -0.01041832      -0.00000000       0.01041832
Au      -6.46449170       6.46449170      -0.00000000       0.04059943       0.01041832      -0.01041832       0.00000000
Au       0.00000000       6.46449170      -6.46449170       0.04059943      -0.00000000      -0.01041832       0.01041832
Au      -6.46449170      -6.46449170      -0.00000000       0.04059943       0.01041832       0.01041832       0.00000000
Au      -0.00000000      -6.46449170      -6.46449170       0.04059943       0.00000000       0.01041832       0.01041832
Au      -6.46449170      -0.00000000      -6.46449170       0.04059943       0.01041832      -0.00000000       0.01041832
Au       9.65914737       3.17941150       3.17941150       0.06302209      -0.00622414      -0.00244277      -0.00244277
Au       9.65914737      -3.17941150       3.17941150       0.06302209      -0.00622414       0.00244277      -0.00244277
Au       9.65914737       3.17941150      -3.17941150       0.06302209      -0.00622414      -0.00244277       0.00244277
Au       9.65914737      -3.17941150      -3.17941150       0.06302209      -0.00622414       0.00244277       0.00244277
Au      -9.65914737       3.17941150       3.17941150       0.06302209       0.00622414      -0.00244277      -0.00244277
Au      -9.65914737      -3.17941150       3.17941150       0.06302209       0.00622414       0.00244277      -0.00244277
Au      -9.65914737       3.17941150      -3.17941150       0.06302209       0.00622414      -0.00244277       0.00244277