369
Properties=species:S:1:pos:R:3:energies:R:1:forces:R:3 energy=70.9515348225735 free_energy=70.9515348225735 pbc="F F F"
Au       0.00000000      -0.00000000       0.00000000       0.03670907      -0.00000000      -0.00000000      -0.00000000
Au       1.60758077       1.60758077       1.60758077       0.03462670      -0.01870960      -0.01870960      -0.01870960
Au       1.60758077      -1.60758077       1.60758077       0.03462670      -0.01870960       0.01870960      -0.01870960
Au      -1.60758077       1.60758077       1.60758077       0.03462670       0.01870960      -0.01870960      -0.01870960
Au      -1.60758077      -1.60758077       1.60758077       0.03462670       0.01870960       0.01870960      -0.01870960
Au       1.60758077       1.60758077      -1.60758077       0.03462670      -0.01870960      -0.01870960       0.01870960
Au       1.60758077      -1.60758077      -1.60758077       0.03462670      -0.01870960       0.01870960       0.01870960
Au      -1.60758077       1.60758077      -1.60758077       0.03462670       0.01870960      -0.01870960       0.01870960
Au      -1.60758077      -1.60758077      -1.60758077       0.03462670       0.01870960       0.01870960       0.01870960
Au       3.21645477      -0.00000000       0.00000000       0.03995826      -0.03641322       0.00000000      -0.00000000
Au      -3.21645477       0.00000000      -0.00000000       0.03995826       0.03641322      -0.00000000       0.00000000
Au       0.00000000       3.21645477      -0.00000000       0.03995826      -0.00000000      -0.03641322       0.00000000
Au       0.00000000      -3.21645477      -0.00000000       0.03995826      -0.00000000       0.03641322       0.00000000
Au      -0.00000000      -0.00000000       3.21645477       0.03995826       0.00000000       0.00000000      -0.03641322
Au       0.00000000      -0.00000000      -3.21645477       0.03995826       0.00000000       0.00000000       0.03641322
Au       3.19516573       3.19516573       3.19516573       0.03860850      -0.00644893      -0.00644893      -0.00644893
Au       3.19516573      -3.19516573       3.19516573       0.03860850      -0.00644893       0.00644893      -0.00644893
Au      -3.19516573       3.19516573       3.19516573       0.03860850       0.00644893      -0.00644893      -0.00644893
Au      -3.19516573      -3.19516573       3.19516573       0.03860850       0.00644893       0.00644893      -0.00644893
Au       3.19516573       3.19516573      -3.19516573       0.03860850      -0.00644893      -0.00644893       0.00644893
Au       3.19516573      -3.19516573      -3.19516573       0.03860850      -0.00644893       0.00644893       0.00644893
Au      -3.19516573       3.19516573      -3.19516573       0.03860850       0.00644893      -0.00644893       0.00644893
Au      -3.19516573      -3.19516573      -3.19516573       0.03860850       0.00644893       0.00644893       0.00644893
Au       6.40487710      -0.00000000      -0.00000000       0.04896280      -0.00227266       0.00000000      -0.00000000
Au      -6.40487710      -0.00000000      -0.00000000       0.04896280       0.00227266       0.00000000       0.00000000
Au       0.00000000       6.40487710       0.00000000       0.04896280      -0.00000000      -0.00227266       0.00000000
Au       0.00000000      -6.40487710       0.00000000       0.04896280      -0.00000000       0.00227266      -0.00000000
Au       0.00000000       0.00000000       6.40487710       0.04896280      -0.00000000      -0.00000000      -0.00227266
Au      -0.00000000      -0.00000000      -6.40487710       0.04896280      -0.00000000       0.00000000       0.00227266
Au       3.23168266       0.00000000       3.23168266       0.02925612      -0.01880891      -0.00000000      -0.01880891
Au       0.00000000       3.23168266       3.23168266       0.02925612      -0.00000000      -0.01880891      -0.01880891
Au       0.00000000      -3.23168266       3.23168266       0.02925612      -0.00000000       0.01880891      -0.01880891
Au      -3.23168266      -0.00000000       3.23168266       0.02925612       0.01880891       0.00000000      -0.01880891
Au       3.23168266       3.23168266       0.00000000       0.02925612      -0.01880891      -0.01880891      -0.00000000
Au       3.23168266      -3.23168266       0.00000000       0.02925612      -0.01880891       0.01880891      -0.00000000
Au       3.23168266      -0.00000000      -3.23168266       0.02925612      -0.01880891      -0.00000000       0.01880891
Au      -3.23168266       3.23168266      -0.00000000       0.02925612       0.01880891      -0.01880891       0.00000000
Au       0.00000000       3.23168266      -3.23168266       0.02925612      -0.00000000      -0.01880891       0.01880891
Au      -3.23168266      -3.23168266      -0.00000000       0.02925612       0.01880891       0.01880891      -0.00000000
Au      -0.00000000      -3.23168266      -3.23168266       0.02925612       0.00000000       0.01880891       0.01880891
Au      -3.23168266       0.00000000      -3.23168266       0.02925612       0.01880891      -0.00000000       0.01880891
Au       4.82341153       1.60281320       1.60281320       0.03690244      -0.01445159      -0.00307325      -0.00307325
Au       4.82341153      -1.60281320       1.60281320       0.03690244      -0.01445159       0.00307325      -0.00307325
Au       4.82341153       1.60281320      -1.60281320       0.03690244      -0.01445159      -0.00307325       0.00307325
Au       4.82341153      -1.60281320      -1.60281320       0.03690244      -0.01445159       0.00307325       0.00307325
Au      -4.82341153       1.60281320       1.60281320       0.03690244       0.01445159      -0.00307325      -0.00307325
Au      -4.82341153      -1.60281320       1.60281320       0.03690244       0.01445159       0.00307325      -0.00307325
Au      -4.82341153       1.60281320      -1.60281320       0.03690244       0.01445159      -0.00307325       0.00307325
Au      -4.82341153      -1.60281320      -1.60281320       0.03690244       0.01445159       0.00307325       0.00307325
Au       1.60281320       4.82341153       1.60281320       0.03690244      -0.00307325      -0.01445159      -0.00307325
Au      -1.60281320       4.82341153       1.60281320       0.03690244       0.00307325      -0.01445159      -0.00307325
Au       1.60281320       4.82341153      -1.60281320       0.03690244      -0.00307325      -0.01445159       0.00307325
Au      -1.60281320       4.82341153      -1.60281320       0.03690244       0.00307325      -0.01445159       0.00307325
Au       1.60281320      -4.82341153       1.60281320       0.03690244      -0.00307325       0.01445159      -0.00307325
Au      -1.60281320      -4.82341153       1.60281320       0.03690244       0.00307325       0.01445159      -0.00307325
Au       1.60281320      -4.82341153      -1.60281320       0.03690244      -0.00307325       0.01445159       0.00307325
Au      -1.60281320      -4.82341153      -1.60281320       0.03690244       0.00307325       0.01445159       0.00307325
Au       1.60281320       1.60281320       4.82341153       0.03690244      -0.00307325      -0.00307325      -0.01445159
Au       1.60281320      -1.60281320       4.82341153       0.03690244      -0.00307325       0.00307325      -0.01445159
Au      -1.60281320       1.60281320       4.82341153       0.03690244       0.00307325      -0.00307325      -0.01445159
Au      -1.60281320      -1.60281320       4.82341153       0.03690244       0.00307325       0.00307325      -0.01445159
Au       1.60281320       1.60281320      -4.82341153       0.03690244      -0.00307325      -0.00307325       0.01445159
Au       1.60281320      -1.60281320      -4.82341153       0.03690244      -0.00307325       0.00307325       0.01445159
Au      -1.60281320       1.60281320      -4.82341153       0.03690244       0.00307325      -0.00307325       0.01445159
Au      -1.60281320      -1.60281320      -4.82341153       0.03690244       0.00307325       0.00307325       0.01445159
Au       4.77810740       4.77810740       4.77810740       0.06640837      -0.01556280      -0.01556280      -0.01556280
Au       4.77810740      -4.77810740       4.77810740       0.06640837      -0.01556280       0.01556280      -0.01556280
Au      -4.77810740       4.77810740       4.77810740       0.06640837       0.01556280      -0.01556280      -0.01556280
Au      -4.77810740      -4.77810740       4.77810740       0.06640837       0.01556280       0.01556280      -0.01556280
Au       4.77810740       4.77810740      -4.77810740       0.06640837      -0.01556280      -0.01556280       0.01556280
Au       4.77810740      -4.77810740      -4.77810740       0.06640837      -0.01556280       0.01556280       0.01556280
Au      -4.77810740       4.77810740      -4.77810740       0.06640837       0.01556280      -0.01556280       0.01556280
Au      -4.77810740      -4.77810740      -4.77810740       0.06640837       0.01556280       0.01556280       0.01556280
Au       9.63094586       0.00000000       0.00000000       0.12805666       0.00801665      -0.00000000      -0.00000000
Au      -9.63094586       0.00000000       0.00000000       0.12805666      -0.00801665      -0.00000000      -0.00000000
Au       0.00000000       9.63094586       0.00000000       0.12805666      -0.00000000       0.00801665      -0.00000000
Au       0.00000000      -9.63094586       0.00000000       0.12805666       0.00000000      -0.00801665      -0.00000000
Au      -0.00000000       0.00000000       9.63094586       0.12805666       0.00000000       0.00000000       0.00801665
Au       0.00000000       0.00000000      -9.63094586       0.12805666      -0.00000000      -0.00000000      -0.00801665
Au       4.84944422      -1.61186279       4.84944422       0.03446272      -0.00530674      -0.00409763      -0.00530674
Au      -1.61186279       4.84944422       4.84944422       0.03446272      -0.00409763      -0.00530674      -0.00530674
Au      -1.61186279      -4.84944422       4.84944422       0.03446272      -0.00409763       0.00530674      -0.00530674
Au      -4.84944422      -1.61186279       4.84944422       0.03446272       0.00530674      -0.00409763      -0.00530674
Au       4.84944422       4.84944422      -1.61186279       0.03446272      -0.00530674      -0.00530674      -0.00409763
Au       4.84944422      -4.84944422      -1.61186279       0.03446272      -0.00530674       0.00530674      -0.00409763
Au       4.84944422      -1.61186279      -4.84944422       0.03446272      -0.00530674      -0.00409763       0.00530674
Au      -4.84944422       4.84944422      -1.61186279       0.03446272       0.00530674      -0.00530674      -0.00409763
Au      -1.61186279       4.84944422      -4.84944422       0.03446272      -0.00409763      -0.00530674       0.00530674
Au      -4.84944422      -4.84944422      -1.61186279       0.03446272       0.00530674       0.00530674      -0.00409763
Au      -1.61186279      -4.84944422      -4.84944422       0.03446272      -0.00409763       0.00530674       0.00530674
Au      -4.84944422      -1.61186279      -4.84944422       0.03446272       0.00530674      -0.00409763       0.00530674
Au       8.04041244       1.59340656       1.59340656       0.05655275      -0.00313262       0.00216261       0.00216261
Au       8.04041244      -1.59340656       1.59340656       0.05655275      -0.00313262      -0.00216261       0.00216261
Au       8.04041244       1.59340656      -1.59340656       0.05655275      -0.00313262       0.00216261      -0.00216261
Au       8.04041244      -1.59340656      -1.59340656       0.05655275      -0.00313262      -0.00216261      -0.00216261
Au      -8.04041244       1.59340656       1.59340656       0.05655275       0.00313262       0.00216261       0.00216261
Au      -8.04041244      -1.59340656       1.59340656       0.05655275       0.00313262      -0.00216261       0.00216261
Au      -8.04041244       1.59340656      -1.59340656       0.05655275       0.00313262       0.00216261      -0.00216261
Au      -8.04041244      -1.59340656      -1.59340656       0.05655275       0.00313262      -0.00216261      -0.00216261
Au       1.59340656       8.04041244       1.59340656       0.05655275       0.00216261      -0.00313262       0.00216261
Au      -1.59340656       8.04041244       1.59340656       0.05655275      -0.00216261      -0.00313262       0.00216261
Au       1.59340656       8.04041244      -1.59340656       0.05655275       0.00216261      -0.00313262      -0.00216261
Au      -1.59340656       8.04041244      -1.59340656       0.05655275      -0.00216261      -0.00313262      -0.00216261
Au       1.59340656      -8.04041244       1.59340656       0.05655275       0.00216261       0.00313262       0.00216261
Au      -1.59340656      -8.04041244       1.59340656       0.05655275      -0.00216261       0.00313262       0.00216261
Au       1.59340656      -8.04041244      -1.59340656       0.05655275       0.00216261       0.00313262      -0.00216261
Au      -1.59340656      -8.04041244      -1.59340656       0.05655275      -0.00216261       0.00313262      -0.00216261
Au       1.59340656       1.59340656       8.04041244       0.05655275       0.00216261       0.00216261      -0.00313262
Au       1.59340656      -1.59340656       8.04041244       0.05655275       0.00216261      -0.00216261      -0.00313262
Au      -1.59340656       1.59340656       8.04041244       0.05655275      -0.00216261       0.00216261      -0.00313262
Au      -1.59340656      -1.59340656       8.04041244       0.05655275      -0.00216261      -0.00216261      -0.00313262
Au       1.59340656       1.59340656      -8.04041244       0.05655275       0.00216261       0.00216261       0.00313262
Au       1.59340656      -1.59340656      -8.04041244       0.05655275       0.00216261      -0.00216261       0.00313262
Au      -1.59340656       1.59340656      -8.04041244       0.05655275      -0.00216261       0.00216261       0.00313262
Au      -1.59340656      -1.59340656      -8.04041244       0.05655275      -0.00216261      -0.00216261       0.00313262
Au       4.84944422       1.61186279       4.84944422       0.03446272      -0.00530674       0.00409763      -0.00530674
Au       1.61186279       4.84944422       4.84944422       0.03446272       0.00409763      -0.00530674      -0.00530674
Au       1.61186279      -4.84944422       4.84944422       0.03446272       0.00409763       0.00530674      -0.00530674
Au      -4.84944422       1.61186279       4.84944422       0.03446272       0.00530674       0.00409763      -0.00530674
Au       4.84944422       4.84944422       1.61186279       0.03446272      -0.00530674      -0.00530674       0.00409763
Au       4.84944422      -4.84944422       1.61186279       0.03446272      -0.00530674       0.00530674       0.00409763
Au       4.84944422       1.61186279      -4.84944422       0.03446272      -0.00530674       0.00409763       0.00530674
Au      -4.84944422       4.84944422       1.61186279       0.03446272       0.00530674      -0.00530674       0.00409763
Au       1.61186279       4.84944422      -4.84944422       0.03446272       0.00409763      -0.00530674       0.00530674
Au      -4.84944422      -4.84944422       1.61186279       0.03446272       0.00530674       0.00530674       0.00409763
Au       1.61186279      -4.84944422      -4.84944422       0.03446272       0.00409763       0.00530674       0.00530674
Au      -4.84944422       1.61186279      -4.84944422       0.03446272       0.00530674       0.00409763       0.00530674
Au       6.44576579       3.18964446       3.18964446       0.05715112       0.00111442       0.00835801       0.00835801
Au       6.44576579      -3.18964446       3.18964446       0.05715112       0.00111442      -0.00835801       0.00835801
Au       6.44576579       3.18964446      -3.18964446       0.05715112       0.00111442       0.00835801      -0.00835801
Au       6.44576579      -3.18964446      -3.18964446       0.05715112       0.00111442      -0.00835801      -0.00835801
Au      -6.44576579       3.18964446       3.18964446       0.05715112      -0.00111442       0.00835801       0.00835801
Au      -6.44576579      -3.18964446       3.18964446       0.05715112      -0.00111442      -0.00835801       0.00835801
Au      -6.44576579       3.18964446      -3.18964446       0.05715112      -0.00111442       0.00835801      -0.00835801
Au      -6.44576579      -3.18964446      -3.18964446       0.05715112      -0.00111442      -0.00835801      -0.00835801
Au       3.18964446       6.44576579       3.18964446       0.05715112       0.00835801       0.00111442       0.00835801
Au      -3.18964446       6.44576579       3.18964446       0.05715112      -0.00835801       0.00111442       0.00835801
Au       3.18964446       6.44576579      -3.18964446       0.05715112       0.00835801       0.00111442      -0.00835801
Au      -3.18964446       6.44576579      -3.18964446       0.05715112      -0.00835801       0.00111442      -0.00835801
Au       3.18964446      -6.44576579       3.18964446       0.05715112       0.00835801      -0.00111442       0.00835801
Au      -3.18964446      -6.44576579       3.18964446       0.05715112      -0.00835801      -0.00111442       0.00835801
Au       3.18964446      -6.44576579      -3.18964446       0.05715112       0.00835801      -0.00111442      -0.00835801
Au      -3.18964446      -6.44576579      -3.18964446       0.05715112      -0.00835801      -0.00111442      -0.00835801
Au       3.18964446       3.18964446       6.44576579       0.05715112       0.00835801       0.00835801       0.00111442
Au       3.18964446      -3.18964446       6.44576579       0.05715112       0.00835801      -0.00835801       0.00111442
Au      -3.18964446       3.18964446       6.44576579       0.05715112      -0.00835801       0.00835801       0.00111442
Au      -3.18964446      -3.18964446       6.44576579       0.05715112      -0.00835801      -0.00835801       0.00111442
Au       3.18964446       3.18964446      -6.44576579       0.05715112       0.00835801       0.00835801      -0.00111442
Au       3.18964446      -3.18964446      -6.44576579       0.05715112       0.00835801      -0.00835801      -0.00111442
Au      -3.18964446       3.18964446      -6.44576579       0.05715112      -0.00835801       0.00835801      -0.00111442
Au      -3.18964446      -3.18964446      -6.44576579       0.05715112      -0.00835801      -0.00835801      -0.00111442
Au       6.45172160       0.00000000       3.24776594       0.03035028      -0.00380614      -0.00000000       0.00104152
Au       3.24776594       0.00000000       6.45172160       0.03035028       0.00104152      -0.00000000      -0.00380614
Au      -0.00000000       6.45172160       3.24776594       0.03035028       0.00000000      -0.00380614       0.00104152
Au       0.00000000       3.24776594       6.45172160       0.03035028       0.00000000       0.00104152      -0.00380614
Au      -0.00000000      -6.45172160       3.24776594       0.03035028      -0.00000000       0.00380614       0.00104152
Au       0.00000000      -3.24776594       6.45172160       0.03035028      -0.00000000      -0.00104152      -0.00380614
Au      -6.45172160       0.00000000       3.24776594       0.03035028       0.00380614      -0.00000000       0.00104152
Au      -3.24776594       0.00000000       6.45172160       0.03035028      -0.00104152      -0.00000000      -0.00380614
Au       6.45172160       3.24776594      -0.00000000       0.03035028      -0.00380614       0.00104152       0.00000000
Au       3.24776594       6.45172160      -0.00000000       0.03035028       0.00104152      -0.00380614      -0.00000000
Au       6.45172160      -3.24776594       0.00000000       0.03035028      -0.00380614      -0.00104152      -0.00000000
Au       3.24776594      -6.45172160      -0.00000000       0.03035028       0.00104152       0.00380614       0.00000000
Au       6.45172160       0.00000000      -3.24776594       0.03035028      -0.00380614      -0.00000000      -0.00104152
Au       3.24776594       0.00000000      -6.45172160       0.03035028       0.00104152      -0.00000000       0.00380614
Au      -6.45172160       3.24776594      -0.00000000       0.03035028       0.00380614       0.00104152       0.00000000
Au      -3.24776594       6.45172160       0.00000000       0.03035028      -0.00104152      -0.00380614       0.00000000
Au       0.00000000       6.45172160      -3.24776594       0.03035028       0.00000000      -0.00380614      -0.00104152
Au       0.00000000       3.24776594      -6.45172160       0.03035028      -0.00000000       0.00104152       0.00380614
Au      -6.45172160      -3.24776594       0.00000000       0.03035028       0.00380614      -0.00104152      -0.00000000
Au      -3.24776594      -6.45172160      -0.00000000       0.03035028      -0.00104152       0.00380614       0.00000000
Au       0.00000000      -6.45172160      -3.24776594       0.03035028      -0.00000000       0.00380614      -0.00104152
Au       0.00000000      -3.24776594      -6.45172160       0.03035028      -0.00000000      -0.00104152       0.00380614
Au      -6.45172160       0.00000000      -3.24776594       0.03035028       0.00380614      -0.00000000      -0.00104152
Au      -3.24776594       0.00000000      -6.45172160       0.03035028      -0.00104152      -0.00000000       0.00380614
Au       6.29080720       6.29080720       6.29080720       0.46365107       0.00249015       0.00249015       0.00249015
Au       6.29080720      -6.29080720       6.29080720       0.46365107       0.00249015      -0.00249015       0.00249015
Au      -6.29080720       6.29080720       6.29080720       0.46365107      -0.00249015       0.00249015       0.00249015
Au      -6.29080720      -6.29080720       6.29080720       0.46365107      -0.00249015      -0.00249015       0.00249015
Au       6.29080720       6.29080720      -6.29080720       0.46365107       0.00249015       0.00249015      -0.00249015
Au       6.29080720      -6.29080720      -6.29080720       0.46365107       0.00249015      -0.00249015      -0.00249015
Au      -6.29080720       6.29080720      -6.29080720       0.46365107      -0.00249015       0.00249015      -0.00249015
Au      -6.29080720      -6.29080720      -6.29080720       0.46365107      -0.00249015      -0.00249015      -0.00249015
Au      12.50305117       0.00000000      -0.00000000       0.57461142      -0.03394343      -0.00000000       0.00000000
Au     -12.50305117      -0.00000000       0.00000000       0.57461142       0.03394343      -0.00000000      -0.00000000
Au       0.00000000      12.50305117       0.00000000       0.57461142       0.00000000      -0.03394343      -0.00000000
Au       0.00000000     -12.50305117       0.00000000       0.57461142      -0.00000000       0.03394343      -0.00000000
Au      -0.00000000      -0.00000000      12.50305117       0.57461142       0.00000000       0.00000000      -0.03394343
Au      -0.00000000       0.00000000     -12.50305117       0.57461142       0.00000000      -0.00000000       0.03394343
Au       6.41717829      -3.23785130       6.41717829       0.25830000       0.00675555      -0.01793022       0.00675555
Au      -3.23785130       6.41717829       6.41717829       0.25830000      -0.01793022       0.00675555       0.00675555
Au      -3.23785130      -6.41717829       6.41717829       0.25830000      -0.01793022      -0.00675555       0.00675555
Au      -6.41717829      -3.23785130       6.41717829       0.25830000      -0.00675555      -0.01793022       0.00675555
Au       6.41717829       6.41717829      -3.23785130       0.25830000       0.00675555       0.00675555      -0.01793022
Au       6.41717829      -6.41717829      -3.23785130       0.25830000       0.00675555      -0.00675555      -0.01793022
Au       6.41717829      -3.23785130      -6.41717829       0.25830000       0.00675555      -0.01793022      -0.00675555
Au      -6.41717829       6.41717829      -3.23785130       0.25830000      -0.00675555       0.00675555      -0.01793022
Au      -3.23785130       6.41717829      -6.41717829       0.25830000      -0.01793022       0.00675555      -0.00675555
Au      -6.41717829      -6.41717829      -3.23785130       0.25830000      -0.00675555      -0.00675555      -0.01793022
Au      -3.23785130      -6.41717829      -6.41717829       0.25830000      -0.01793022      -0.00675555      -0.00675555
Au      -6.41717829      -3.23785130      -6.41717829       0.25830000      -0.00675555      -0.01793022      -0.00675555
Au      11.09278022       1.60318242       1.60318242       0.39015375      -0.01515680       0.01820887       0.01820887
Au      11.09278022      -1.60318242       1.60318242       0.39015375      -0.01515680      -0.01820887       0.01820887
Au      11.09278022       1.60318242      -1.60318242       0.39015375      -0.01515680       0.01820887      -0.01820887
Au      11.09278022      -1.60318242      -1.60318242       0.39015375      -0.01515680      -0.01820887      -0.01820887
Au     -11.09278022       1.60318242       1.60318242       0.39015375       0.01515680       0.01820887       0.01820887
Au     -11.09278022      -1.60318242       1.60318242       0.39015375       0.01515680      -0.01820887       0.01820887
Au     -11.09278022       1.60318242      -1.60318242       0.39015375       0.01515680       0.01820887      -0.01820887
Au     -11.09278022      -1.60318242      -1.60318242       0.39015375       0.01515680      -0.01820887      -0.01820887
Au       1.60318242      11.09278022       1.60318242       0.39015375       0.01820887      -0.01515680       0.01820887
Au      -1.60318242      11.09278022       1.60318242       0.39015375      -0.01820887      -0.01515680       0.01820887
Au       1.60318242      11.09278022      -1.60318242       0.39015375       0.01820887      -0.01515680      -0.01820887
Au      -1.60318242      11.09278022      -1.60318242       0.39015375      -0.01820887      -0.01515680      -0.01820887
Au       1.60318242     -11.09278022       1.60318242       0.39015375       0.01820887       0.01515680       0.01820887
Au      -1.60318242     -11.09278022       1.60318242       0.39015375      -0.01820887       0.01515680       0.01820887
Au       1.60318242     -11.09278022      -1.60318242       0.39015375       0.01820887       0.01515680      -0.01820887
Au      -1.60318242     -11.09278022      -1.60318242       0.39015375      -0.01820887       0.01515680      -0.01820887
Au       1.60318242       1.60318242      11.09278022       0.39015375       0.01820887       0.01820887      -0.01515680
Au       1.60318242      -1.60318242      11.09278022       0.39015375       0.01820887      -0.01820887      -0.01515680
Au      -1.60318242       1.60318242      11.09278022       0.39015375      -0.01820887       0.01820887      -0.01515680
Au      -1.60318242      -1.60318242      11.09278022       0.39015375      -0.01820887      -0.01820887      -0.01515680
Au       1.60318242       1.60318242     -11.09278022       0.39015375       0.01820887       0.01820887       0.01515680
Au       1.60318242      -1.60318242     -11.09278022       0.39015375       0.01820887      -0.01820887       0.01515680
Au      -1.60318242       1.60318242     -11.09278022       0.39015375      -0.01820887       0.01820887       0.01515680
Au      -1.60318242      -1.60318242     -11.09278022       0.39015375      -0.01820887      -0.01820887       0.01515680
Au       6.42594965      -0.00000000       6.42594965       0.26320132      -0.01490418      -0.00000000      -0.01490418
Au      -0.00000000       6.42594965       6.42594965       0.26320132       0.00000000      -0.01490418      -0.01490418
Au      -0.00000000      -6.42594965       6.42594965       0.26320132       0.00000000       0.01490418      -0.01490418
Au      -6.42594965      -0.00000000       6.42594965       0.26320132       0.01490418       0.00000000      -0.01490418
Au       6.42594965       6.42594965       0.00000000       0.26320132      -0.01490418      -0.01490418      -0.00000000
Au       6.42594965      -6.42594965       0.00000000       0.26320132      -0.01490418       0.01490418      -0.00000000
Au       6.42594965       0.00000000      -6.42594965       0.26320132      -0.01490418       0.00000000       0.01490418
Au      -6.42594965       6.42594965      -0.00000000       0.26320132       0.01490418      -0.01490418       0.00000000
Au       0.00000000       6.42594965      -6.42594965       0.26320132       0.00000000      -0.01490418       0.01490418
Au      -6.42594965      -6.42594965      -0.00000000       0.26320132       0.01490418       0.01490418      -0.00000000
Au       0.00000000      -6.42594965      -6.42594965       0.26320132      -0.00000000       0.01490418       0.01490418
Au      -6.42594965       0.00000000      -6.42594965       0.26320132       0.01490418      -0.00000000       0.01490418
Au       9.52129517       3.17520759       3.17520759       0.38505144      -0.01003068      -0.00208697      -0.00208697
Au       9.52129517      -3.17520759       3.17520759       0.38505144      -0.01003068       0.00208697      -0.00208697
Au       9.52129517       3.17520759      -3.17520759       0.38505144      -0.01003068      -0.00208697       0.00208697
Au       9.52129517      -3.17520759      -3.17520759       0.38505144      -0.01003068       0.00208697       0.00208697
Au      -9.52129517       3.17520759       3.17520759       0.38505144       0.01003068      -0.00208697      -0.00208697
Au      -9.52129517      -3.17520759       3.17520759       0.38505144       0.01003068       0.00208697      -0.00208697
Au      -9.52129517       3.17520759      -3.17520759       0.38505144       0.01003068      -0.00208697       0.00208697