923
Properties=species:S:1:pos:R:3:energies:R:1:forces:R:3 energy=117.18413227161369 free_energy=117.18413227161369 pbc="F F F"
Au      -0.00000000      -0.00000000      -0.00000000       0.00315521      -0.00000000       0.00000000       0.00000000
Au      -2.01954491       2.01954491      -0.00000000       0.00224987       0.01827723      -0.01827723       0.00000000
Au       2.01954491       2.01954491       0.00000000       0.00224987      -0.01827723      -0.01827723      -0.00000000
Au      -2.01954491      -2.01954491      -0.00000000       0.00224987       0.01827723       0.01827723       0.00000000
Au       2.01954491      -2.01954491      -0.00000000       0.00224987      -0.01827723       0.01827723      -0.00000000
Au      -0.00000000      -2.01954491       2.01954491       0.00224987      -0.00000000       0.01827723      -0.01827723
Au       0.00000000       2.01954491       2.01954491       0.00224987      -0.00000000      -0.01827723      -0.01827723
Au      -0.00000000      -2.01954491      -2.01954491       0.00224987       0.00000000       0.01827723       0.01827723
Au      -0.00000000       2.01954491      -2.01954491       0.00224987       0.00000000      -0.01827723       0.01827723
Au       2.01954491      -0.00000000      -2.01954491       0.00224987      -0.01827723       0.00000000       0.01827723
Au       2.01954491       0.00000000       2.01954491       0.00224987      -0.01827723      -0.00000000      -0.01827723
Au      -2.01954491       0.00000000      -2.01954491       0.00224987       0.01827723       0.00000000       0.01827723
Au      -2.01954491      -0.00000000       2.01954491       0.00224987       0.01827723       0.00000000      -0.01827723
Au      -4.03091772       4.03091772       0.00000000       0.00353298       0.01412826      -0.01412826      -0.00000000
Au       4.03091772       4.03091772      -0.00000000       0.00353298      -0.01412826      -0.01412826      -0.00000000
Au      -4.03091772      -4.03091772      -0.00000000       0.00353298       0.01412826       0.01412826       0.00000000
Au       4.03091772      -4.03091772      -0.00000000       0.00353298      -0.01412826       0.01412826       0.00000000
Au       0.00000000      -4.03091772       4.03091772       0.00353298       0.00000000       0.01412826      -0.01412826
Au      -0.00000000       4.03091772       4.03091772       0.00353298       0.00000000      -0.01412826      -0.01412826
Au      -0.00000000      -4.03091772      -4.03091772       0.00353298       0.00000000       0.01412826       0.01412826
Au       0.00000000       4.03091772      -4.03091772       0.00353298      -0.00000000      -0.01412826       0.01412826
Au       4.03091772      -0.00000000      -4.03091772       0.00353298      -0.01412826       0.00000000       0.01412826
Au       4.03091772       0.00000000       4.03091772       0.00353298      -0.01412826      -0.00000000      -0.01412826
Au      -4.03091772      -0.00000000      -4.03091772       0.00353298       0.01412826       0.00000000       0.01412826
Au      -4.03091772      -0.00000000       4.03091772       0.00353298       0.01412826       0.00000000      -0.01412826
Au      -2.01286236      -4.04409507       2.01286236       0.00217250       0.00784479       0.02813645      -0.00784479
Au       2.01286236      -4.04409507       2.01286236       0.00217250      -0.00784479       0.02813645      -0.00784479
Au      -2.01286236       4.04409507       2.01286236       0.00217250       0.00784479      -0.02813645      -0.00784479
Au       2.01286236       4.04409507       2.01286236       0.00217250      -0.00784479      -0.02813645      -0.00784479
Au      -2.01286236      -4.04409507      -2.01286236       0.00217250       0.00784479       0.02813645       0.00784479
Au       2.01286236      -4.04409507      -2.01286236       0.00217250      -0.00784479       0.02813645       0.00784479
Au      -2.01286236       4.04409507      -2.01286236       0.00217250       0.00784479      -0.02813645       0.00784479
Au       2.01286236       4.04409507      -2.01286236       0.00217250      -0.00784479      -0.02813645       0.00784479
Au       4.04409507       2.01286236      -2.01286236       0.00217250      -0.02813645      -0.00784479       0.00784479
Au       4.04409507      -2.01286236      -2.01286236       0.00217250      -0.02813645       0.00784479       0.00784479
Au       2.01286236      -2.01286236      -4.04409507       0.00217250      -0.00784479       0.00784479       0.02813645
Au       2.01286236       2.01286236      -4.04409507       0.00217250      -0.00784479      -0.00784479       0.02813645
Au       4.04409507       2.01286236       2.01286236       0.00217250      -0.02813645      -0.00784479      -0.00784479
Au       4.04409507      -2.01286236       2.01286236       0.00217250      -0.02813645       0.00784479      -0.00784479
Au       2.01286236      -2.01286236       4.04409507       0.00217250      -0.00784479       0.00784479      -0.02813645
Au       2.01286236       2.01286236       4.04409507       0.00217250      -0.00784479      -0.00784479      -0.02813645
Au      -4.04409507       2.01286236      -2.01286236       0.00217250       0.02813645      -0.00784479       0.00784479
Au      -4.04409507      -2.01286236      -2.01286236       0.00217250       0.02813645       0.00784479       0.00784479
Au      -2.01286236      -2.01286236      -4.04409507       0.00217250       0.00784479       0.00784479       0.02813645
Au      -2.01286236       2.01286236      -4.04409507       0.00217250       0.00784479      -0.00784479       0.02813645
Au      -4.04409507       2.01286236       2.01286236       0.00217250       0.02813645      -0.00784479      -0.00784479
Au      -4.04409507      -2.01286236       2.01286236       0.00217250       0.02813645       0.00784479      -0.00784479
Au      -2.01286236      -2.01286236       4.04409507       0.00217250       0.00784479       0.00784479      -0.02813645
Au      -2.01286236       2.01286236       4.04409507       0.00217250       0.00784479      -0.00784479      -0.02813645
Au      -0.00000000      -4.05785044       0.00000000       0.00148750       0.00000000       0.04360916      -0.00000000
Au       0.00000000       4.05785044      -0.00000000       0.00148750      -0.00000000      -0.04360916      -0.00000000
Au       4.05785044       0.00000000      -0.00000000       0.00148750      -0.04360916      -0.00000000       0.00000000
Au       0.00000000       0.00000000      -4.05785044       0.00148750       0.00000000      -0.00000000       0.04360916
Au      -0.00000000      -0.00000000       4.05785044       0.00148750       0.00000000       0.00000000      -0.04360916
Au      -4.05785044      -0.00000000       0.00000000       0.00148750       0.04360916       0.00000000      -0.00000000
Au      -6.03588381       6.03588381      -0.00000000       0.00613499      -0.01013973       0.01013973       0.00000000
Au       6.03588381       6.03588381      -0.00000000       0.00613499       0.01013973       0.01013973       0.00000000
Au      -6.03588381      -6.03588381       0.00000000       0.00613499      -0.01013973      -0.01013973      -0.00000000
Au       6.03588381      -6.03588381       0.00000000       0.00613499       0.01013973      -0.01013973       0.00000000
Au      -0.00000000      -6.03588381       6.03588381       0.00613499       0.00000000      -0.01013973       0.01013973
Au      -0.00000000       6.03588381       6.03588381       0.00613499       0.00000000       0.01013973       0.01013973
Au       0.00000000      -6.03588381      -6.03588381       0.00613499      -0.00000000      -0.01013973      -0.01013973
Au       0.00000000       6.03588381      -6.03588381       0.00613499      -0.00000000       0.01013973      -0.01013973
Au       6.03588381       0.00000000      -6.03588381       0.00613499       0.01013973      -0.00000000      -0.01013973
Au       6.03588381       0.00000000       6.03588381       0.00613499       0.01013973      -0.00000000       0.01013973
Au      -6.03588381      -0.00000000      -6.03588381       0.00613499      -0.01013973       0.00000000      -0.01013973
Au      -6.03588381      -0.00000000       6.03588381       0.00613499      -0.01013973       0.00000000       0.01013973
Au      -2.00473019      -6.05896099       4.01935123       0.00275517      -0.02043707      -0.01159734       0.00522678
Au       2.00473019      -6.05896099       4.01935123       0.00275517       0.02043707      -0.01159734       0.00522678
Au      -2.00473019       6.05896099       4.01935123       0.00275517      -0.02043707       0.01159734       0.00522678
Au       2.00473019       6.05896099       4.01935123       0.00275517       0.02043707       0.01159734       0.00522678
Au      -2.00473019      -6.05896099      -4.01935123       0.00275517      -0.02043707      -0.01159734      -0.00522678
Au       2.00473019      -6.05896099      -4.01935123       0.00275517       0.02043707      -0.01159734      -0.00522678
Au      -2.00473019       6.05896099      -4.01935123       0.00275517      -0.02043707       0.01159734      -0.00522678
Au       2.00473019       6.05896099      -4.01935123       0.00275517       0.02043707       0.01159734      -0.00522678
Au       6.05896099       2.00473019      -4.01935123       0.00275517       0.01159734       0.02043707      -0.00522678
Au       6.05896099      -2.00473019      -4.01935123       0.00275517       0.01159734      -0.02043707      -0.00522678
Au       4.01935123      -2.00473019      -6.05896099       0.00275517       0.00522678      -0.02043707      -0.01159734
Au       4.01935123       2.00473019      -6.05896099       0.00275517       0.00522678       0.02043707      -0.01159734
Au       6.05896099       2.00473019       4.01935123       0.00275517       0.01159734       0.02043707       0.00522678
Au       6.05896099      -2.00473019       4.01935123       0.00275517       0.01159734      -0.02043707       0.00522678
Au       4.01935123      -2.00473019       6.05896099       0.00275517       0.00522678      -0.02043707       0.01159734
Au       4.01935123       2.00473019       6.05896099       0.00275517       0.00522678       0.02043707       0.01159734
Au      -6.05896099       2.00473019      -4.01935123       0.00275517      -0.01159734       0.02043707      -0.00522678
Au      -6.05896099      -2.00473019      -4.01935123       0.00275517      -0.01159734      -0.02043707      -0.00522678
Au      -4.01935123      -2.00473019      -6.05896099       0.00275517      -0.00522678      -0.02043707      -0.01159734
Au      -4.01935123       2.00473019      -6.05896099       0.00275517      -0.00522678       0.02043707      -0.01159734
Au      -6.05896099       2.00473019       4.01935123       0.00275517      -0.01159734       0.02043707       0.00522678
Au      -6.05896099      -2.00473019       4.01935123       0.00275517      -0.01159734      -0.02043707       0.00522678
Au      -4.01935123      -2.00473019       6.05896099       0.00275517      -0.00522678      -0.02043707       0.01159734
Au      -4.01935123       2.00473019       6.05896099       0.00275517      -0.00522678       0.02043707       0.01159734
Au      -4.01935123      -6.05896099       2.00473019       0.00275517      -0.00522678      -0.01159734       0.02043707
Au       4.01935123      -6.05896099       2.00473019       0.00275517       0.00522678      -0.01159734       0.02043707
Au      -4.01935123       6.05896099       2.00473019       0.00275517      -0.00522678       0.01159734       0.02043707
Au       4.01935123       6.05896099       2.00473019       0.00275517       0.00522678       0.01159734       0.02043707
Au      -4.01935123      -6.05896099      -2.00473019       0.00275517      -0.00522678      -0.01159734      -0.02043707
Au       4.01935123      -6.05896099      -2.00473019       0.00275517       0.00522678      -0.01159734      -0.02043707
Au      -4.01935123       6.05896099      -2.00473019       0.00275517      -0.00522678       0.01159734      -0.02043707
Au       4.01935123       6.05896099      -2.00473019       0.00275517       0.00522678       0.01159734      -0.02043707
Au       6.05896099       4.01935123      -2.00473019       0.00275517       0.01159734       0.00522678      -0.02043707
Au       6.05896099      -4.01935123      -2.00473019       0.00275517       0.01159734      -0.00522678      -0.02043707
Au       2.00473019      -4.01935123      -6.05896099       0.00275517       0.02043707      -0.00522678      -0.01159734
Au       2.00473019       4.01935123      -6.05896099       0.00275517       0.02043707       0.00522678      -0.01159734
Au       6.05896099       4.01935123       2.00473019       0.00275517       0.01159734       0.00522678       0.02043707
Au       6.05896099      -4.01935123       2.00473019       0.00275517       0.01159734      -0.00522678       0.02043707
Au       2.00473019      -4.01935123       6.05896099       0.00275517       0.02043707      -0.00522678       0.01159734
Au       2.00473019       4.01935123       6.05896099       0.00275517       0.02043707       0.00522678       0.01159734
Au      -6.05896099       4.01935123      -2.00473019       0.00275517      -0.01159734       0.00522678      -0.02043707
Au      -6.05896099      -4.01935123      -2.00473019       0.00275517      -0.01159734      -0.00522678      -0.02043707
Au      -2.00473019      -4.01935123      -6.05896099       0.00275517      -0.02043707      -0.00522678      -0.01159734
Au      -2.00473019       4.01935123      -6.05896099       0.00275517      -0.02043707       0.00522678      -0.01159734
Au      -6.05896099       4.01935123       2.00473019       0.00275517      -0.01159734       0.00522678       0.02043707
Au      -6.05896099      -4.01935123       2.00473019       0.00275517      -0.01159734      -0.00522678       0.02043707
Au      -2.00473019      -4.01935123       6.05896099       0.00275517      -0.02043707      -0.00522678       0.01159734
Au      -2.00473019       4.01935123       6.05896099       0.00275517      -0.02043707       0.00522678       0.01159734
Au      -4.02842796      -4.02842796       4.02842796       0.00028562      -0.00949304      -0.00949304       0.00949304
Au       4.02842796      -4.02842796       4.02842796       0.00028562       0.00949304      -0.00949304       0.00949304
Au      -4.02842796       4.02842796       4.02842796       0.00028562      -0.00949304       0.00949304       0.00949304
Au       4.02842796       4.02842796       4.02842796       0.00028562       0.00949304       0.00949304       0.00949304
Au      -4.02842796      -4.02842796      -4.02842796       0.00028562      -0.00949304      -0.00949304      -0.00949304
Au       4.02842796      -4.02842796      -4.02842796       0.00028562       0.00949304      -0.00949304      -0.00949304
Au      -4.02842796       4.02842796      -4.02842796       0.00028562      -0.00949304       0.00949304      -0.00949304
Au       4.02842796       4.02842796      -4.02842796       0.00028562       0.00949304       0.00949304      -0.00949304
Au       0.00000000      -6.09061299      -2.00817259       0.00208988      -0.00000000       0.00924125       0.00125812
Au       2.00817259      -6.09061299      -0.00000000       0.00208988      -0.00125812       0.00924125       0.00000000
Au      -2.00817259      -6.09061299       0.00000000       0.00208988       0.00125812       0.00924125       0.00000000
Au      -0.00000000      -6.09061299       2.00817259       0.00208988       0.00000000       0.00924125      -0.00125812
Au       0.00000000       6.09061299      -2.00817259       0.00208988      -0.00000000      -0.00924125       0.00125812
Au       2.00817259       6.09061299      -0.00000000       0.00208988      -0.00125812      -0.00924125       0.00000000
Au      -2.00817259       6.09061299      -0.00000000       0.00208988       0.00125812      -0.00924125      -0.00000000
Au       0.00000000       6.09061299       2.00817259       0.00208988      -0.00000000      -0.00924125      -0.00125812
Au       6.09061299       0.00000000       2.00817259       0.00208988      -0.00924125      -0.00000000      -0.00125812
Au       6.09061299      -2.00817259       0.00000000       0.00208988      -0.00924125       0.00125812       0.00000000
Au       6.09061299       2.00817259      -0.00000000       0.00208988      -0.00924125      -0.00125812      -0.00000000
Au       6.09061299      -0.00000000      -2.00817259       0.00208988      -0.00924125       0.00000000       0.00125812
Au      -2.00817259       0.00000000      -6.09061299       0.00208988       0.00125812      -0.00000000       0.00924125
Au      -0.00000000       2.00817259      -6.09061299       0.00208988       0.00000000      -0.00125812       0.00924125
Au      -0.00000000      -2.00817259      -6.09061299       0.00208988       0.00000000       0.00125812       0.00924125
Au       2.00817259       0.00000000      -6.09061299       0.00208988      -0.00125812      -0.00000000       0.00924125
Au      -2.00817259       0.00000000       6.09061299       0.00208988       0.00125812       0.00000000      -0.00924125
Au       0.00000000       2.00817259       6.09061299       0.00208988      -0.00000000      -0.00125812      -0.00924125
Au      -0.00000000      -2.00817259       6.09061299       0.00208988       0.00000000       0.00125812      -0.00924125
Au       2.00817259       0.00000000       6.09061299       0.00208988      -0.00125812      -0.00000000      -0.00924125
Au      -6.09061299      -0.00000000       2.00817259       0.00208988       0.00924125      -0.00000000      -0.00125812
Au      -6.09061299      -2.00817259      -0.00000000       0.00208988       0.00924125       0.00125812       0.00000000
Au      -6.09061299       2.00817259       0.00000000       0.00208988       0.00924125      -0.00125812      -0.00000000
Au      -6.09061299       0.00000000      -2.00817259       0.00208988       0.00924125       0.00000000       0.00125812
Au      -8.03010054       8.03010054      -0.00000000       0.00263807      -0.00296024       0.00296024       0.00000000
Au       8.03010054       8.03010054      -0.00000000       0.00263807       0.00296024       0.00296024       0.00000000
Au      -8.03010054      -8.03010054       0.00000000       0.00263807      -0.00296024      -0.00296024       0.00000000
Au       8.03010054      -8.03010054       0.00000000       0.00263807       0.00296024      -0.00296024      -0.00000000
Au      -0.00000000      -8.03010054       8.03010054       0.00263807       0.00000000      -0.00296024       0.00296024
Au      -0.00000000       8.03010054       8.03010054       0.00263807      -0.00000000       0.00296024       0.00296024
Au      -0.00000000      -8.03010054      -8.03010054       0.00263807       0.00000000      -0.00296024      -0.00296024
Au      -0.00000000       8.03010054      -8.03010054       0.00263807       0.00000000       0.00296024      -0.00296024
Au       8.03010054       0.00000000      -8.03010054       0.00263807       0.00296024      -0.00000000      -0.00296024
Au       8.03010054      -0.00000000       8.03010054       0.00263807       0.00296024      -0.00000000       0.00296024
Au      -8.03010054       0.00000000      -8.03010054       0.00263807      -0.00296024      -0.00000000      -0.00296024
Au      -8.03010054       0.00000000       8.03010054       0.00263807      -0.00296024       0.00000000       0.00296024
Au      -2.00792327      -8.06737335       6.02900246       0.00031095      -0.00842751      -0.00974916       0.00072375
Au       2.00792327      -8.06737335       6.02900246       0.00031095       0.00842751      -0.00974916       0.00072375
Au      -2.00792327       8.06737335       6.02900246       0.00031095      -0.00842751       0.00974916       0.00072375
Au       2.00792327       8.06737335       6.02900246       0.00031095       0.00842751       0.00974916       0.00072375
Au      -2.00792327      -8.06737335      -6.02900246       0.00031095      -0.00842751      -0.00974916      -0.00072375
Au       2.00792327      -8.06737335      -6.02900246       0.00031095       0.00842751      -0.00974916      -0.00072375
Au      -2.00792327       8.06737335      -6.02900246       0.00031095      -0.00842751       0.00974916      -0.00072375
Au       2.00792327       8.06737335      -6.02900246       0.00031095       0.00842751       0.00974916      -0.00072375
Au       8.06737335       2.00792327      -6.02900246       0.00031095       0.00974916       0.00842751      -0.00072375
Au       8.06737335      -2.00792327      -6.02900246       0.00031095       0.00974916      -0.00842751      -0.00072375
Au       6.02900246      -2.00792327      -8.06737335       0.00031095       0.00072375      -0.00842751      -0.00974916
Au       6.02900246       2.00792327      -8.06737335       0.00031095       0.00072375       0.00842751      -0.00974916
Au       8.06737335       2.00792327       6.02900246       0.00031095       0.00974916       0.00842751       0.00072375
Au       8.06737335      -2.00792327       6.02900246       0.00031095       0.00974916      -0.00842751       0.00072375
Au       6.02900246      -2.00792327       8.06737335       0.00031095       0.00072375      -0.00842751       0.00974916
Au       6.02900246       2.00792327       8.06737335       0.00031095       0.00072375       0.00842751       0.00974916
Au      -8.06737335       2.00792327      -6.02900246       0.00031095      -0.00974916       0.00842751      -0.00072375
Au      -8.06737335      -2.00792327      -6.02900246       0.00031095      -0.00974916      -0.00842751      -0.00072375
Au      -6.02900246      -2.00792327      -8.06737335       0.00031095      -0.00072375      -0.00842751      -0.00974916
Au      -6.02900246       2.00792327      -8.06737335       0.00031095      -0.00072375       0.00842751      -0.00974916
Au      -8.06737335       2.00792327       6.02900246       0.00031095      -0.00974916       0.00842751       0.00072375
Au      -8.06737335      -2.00792327       6.02900246       0.00031095      -0.00974916      -0.00842751       0.00072375
Au      -6.02900246      -2.00792327       8.06737335       0.00031095      -0.00072375      -0.00842751       0.00974916
Au      -6.02900246       2.00792327       8.06737335       0.00031095      -0.00072375       0.00842751       0.00974916
Au      -4.01352624      -8.07403390       4.01352624      -0.00009535      -0.00586410      -0.01058389       0.00586410
Au       4.01352624      -8.07403390       4.01352624      -0.00009535       0.00586410      -0.01058389       0.00586410
Au      -4.01352624       8.07403390       4.01352624      -0.00009535      -0.00586410       0.01058389       0.00586410
Au       4.01352624       8.07403390       4.01352624      -0.00009535       0.00586410       0.01058389       0.00586410
Au      -4.01352624      -8.07403390      -4.01352624      -0.00009535      -0.00586410      -0.01058389      -0.00586410
Au       4.01352624      -8.07403390      -4.01352624      -0.00009535       0.00586410      -0.01058389      -0.00586410
Au      -4.01352624       8.07403390      -4.01352624      -0.00009535      -0.00586410       0.01058389      -0.00586410
Au       4.01352624       8.07403390      -4.01352624      -0.00009535       0.00586410       0.01058389      -0.00586410
Au       8.07403390       4.01352624      -4.01352624      -0.00009535       0.01058389       0.00586410      -0.00586410
Au       8.07403390      -4.01352624      -4.01352624      -0.00009535       0.01058389      -0.00586410      -0.00586410
Au       4.01352624      -4.01352624      -8.07403390      -0.00009535       0.00586410      -0.00586410      -0.01058389
Au       4.01352624       4.01352624      -8.07403390      -0.00009535       0.00586410       0.00586410      -0.01058389
Au       8.07403390       4.01352624       4.01352624      -0.00009535       0.01058389       0.00586410       0.00586410
Au       8.07403390      -4.01352624       4.01352624      -0.00009535       0.01058389      -0.00586410       0.00586410
Au       4.01352624      -4.01352624       8.07403390      -0.00009535       0.00586410      -0.00586410       0.01058389
Au       4.01352624       4.01352624       8.07403390      -0.00009535       0.00586410       0.00586410       0.01058389
Au      -8.07403390       4.01352624      -4.01352624      -0.00009535      -0.01058389       0.00586410      -0.00586410
Au      -8.07403390      -4.01352624      -4.01352624      -0.00009535      -0.01058389      -0.00586410      -0.00586410
Au      -4.01352624      -4.01352624      -8.07403390      -0.00009535      -0.00586410      -0.00586410      -0.01058389
Au      -4.01352624       4.01352624      -8.07403390      -0.00009535      -0.00586410       0.00586410      -0.01058389
Au      -8.07403390       4.01352624       4.01352624      -0.00009535      -0.01058389       0.00586410       0.00586410
Au      -8.07403390      -4.01352624       4.01352624      -0.00009535      -0.01058389      -0.00586410       0.00586410
Au      -4.01352624      -4.01352624       8.07403390      -0.00009535      -0.00586410      -0.00586410       0.01058389
Au      -4.01352624       4.01352624       8.07403390      -0.00009535      -0.00586410       0.00586410       0.01058389
Au      -6.02900246      -8.06737335       2.00792327       0.00031095      -0.00072375      -0.00974916       0.00842751
Au       6.02900246      -8.06737335       2.00792327       0.00031095       0.00072375      -0.00974916       0.00842751
Au      -6.02900246       8.06737335       2.00792327       0.00031095      -0.00072375       0.00974916       0.00842751
Au       6.02900246       8.06737335       2.00792327       0.00031095       0.00072375       0.00974916       0.00842751
Au      -6.02900246      -8.06737335      -2.00792327       0.00031095      -0.00072375      -0.00974916      -0.00842751
Au       6.02900246      -8.06737335      -2.00792327       0.00031095       0.00072375      -0.00974916      -0.00842751
Au      -6.02900246       8.06737335      -2.00792327       0.00031095      -0.00072375       0.00974916      -0.00842751
Au       6.02900246       8.06737335      -2.00792327       0.00031095       0.00072375       0.00974916      -0.00842751
Au       8.06737335       6.02900246      -2.00792327       0.00031095       0.00974916       0.00072375      -0.00842751
Au       8.06737335      -6.02900246      -2.00792327       0.00031095       0.00974916      -0.00072375      -0.00842751
Au       2.00792327      -6.02900246      -8.06737335       0.00031095       0.00842751      -0.00072375      -0.00974916
Au       2.00792327       6.02900246      -8.06737335       0.00031095       0.00842751       0.00072375      -0.00974916
Au       8.06737335       6.02900246       2.00792327       0.00031095       0.00974916       0.00072375       0.00842751
Au       8.06737335      -6.02900246       2.00792327       0.00031095       0.00974916      -0.00072375       0.00842751
Au       2.00792327      -6.02900246       8.06737335       0.00031095       0.00842751      -0.00072375       0.00974916
Au       2.00792327       6.02900246       8.06737335       0.00031095       0.00842751       0.00072375       0.00974916
Au      -8.06737335       6.02900246      -2.00792327       0.00031095      -0.00974916       0.00072375      -0.00842751
Au      -8.06737335      -6.02900246      -2.00792327       0.00031095      -0.00974916      -0.00072375      -0.00842751
Au      -2.00792327      -6.02900246      -8.06737335       0.00031095      -0.00842751      -0.00072375      -0.00974916
Au      -2.00792327       6.02900246      -8.06737335       0.00031095      -0.00842751       0.00072375      -0.00974916
Au      -8.06737335       6.02900246       2.00792327       0.00031095      -0.00974916       0.00072375       0.00842751
Au      -8.06737335      -6.02900246       2.00792327       0.00031095      -0.00974916      -0.00072375       0.00842751
Au      -2.00792327      -6.02900246       8.06737335       0.00031095      -0.00842751      -0.00072375       0.00974916
Au      -2.00792327       6.02900246       8.06737335       0.00031095      -0.00842751       0.00072375       0.00974916
Au      -6.04475702      -6.04475702       4.02434712      -0.00059723      -0.01706362      -0.01706362       0.01328346
Au      -4.02434712      -6.04475702       6.04475702      -0.00059723      -0.01328346      -0.01706362       0.01706362
Au      -6.04475702      -4.02434712       6.04475702      -0.00059723      -0.01706362      -0.01328346       0.01706362
Au       6.04475702      -6.04475702       4.02434712      -0.00059723       0.01706362      -0.01706362       0.01328346
Au       4.02434712      -6.04475702       6.04475702      -0.00059723       0.01328346      -0.01706362       0.01706362
Au       6.04475702      -4.02434712       6.04475702      -0.00059723       0.01706362      -0.01328346       0.01706362
Au      -6.04475702       6.04475702       4.02434712      -0.00059723      -0.01706362       0.01706362       0.01328346
Au      -4.02434712       6.04475702       6.04475702      -0.00059723      -0.01328346       0.01706362       0.01706362
Au      -6.04475702       4.02434712       6.04475702      -0.00059723      -0.01706362       0.01328346       0.01706362
Au       6.04475702       6.04475702       4.02434712      -0.00059723       0.01706362       0.01706362       0.01328346
Au       4.02434712       6.04475702       6.04475702      -0.00059723       0.01328346       0.01706362       0.01706362
Au       6.04475702       4.02434712       6.04475702      -0.00059723       0.01706362       0.01328346       0.01706362
Au      -6.04475702      -6.04475702      -4.02434712      -0.00059723      -0.01706362      -0.01706362      -0.01328346