561
Properties=species:S:1:pos:R:3:energies:R:1:forces:R:3 energy=84.30429245975127 free_energy=84.30429245975127 pbc="F F F"
Au      -0.00000000      -0.00000000      -0.00000000       0.00766004       0.00000000       0.00000000       0.00000000
Au      -2.01323720       2.01323720       0.00000000       0.00553269       0.01394079      -0.01394079       0.00000000
Au       2.01323720       2.01323720      -0.00000000       0.00553269      -0.01394079      -0.01394079      -0.00000000
Au      -2.01323720      -2.01323720       0.00000000       0.00553269       0.01394079       0.01394079      -0.00000000
Au       2.01323720      -2.01323720      -0.00000000       0.00553269      -0.01394079       0.01394079       0.00000000
Au       0.00000000      -2.01323720       2.01323720       0.00553269      -0.00000000       0.01394079      -0.01394079
Au       0.00000000       2.01323720       2.01323720       0.00553269       0.00000000      -0.01394079      -0.01394079
Au      -0.00000000      -2.01323720      -2.01323720       0.00553269      -0.00000000       0.01394079       0.01394079
Au      -0.00000000       2.01323720      -2.01323720       0.00553269      -0.00000000      -0.01394079       0.01394079
Au       2.01323720      -0.00000000      -2.01323720       0.00553269      -0.01394079       0.00000000       0.01394079
Au       2.01323720      -0.00000000       2.01323720       0.00553269      -0.01394079       0.00000000      -0.01394079
Au      -2.01323720       0.00000000      -2.01323720       0.00553269       0.01394079       0.00000000       0.01394079
Au      -2.01323720      -0.00000000       2.01323720       0.00553269       0.01394079       0.00000000      -0.01394079
Au      -4.01506446       4.01506446      -0.00000000       0.00800213      -0.01229234       0.01229234       0.00000000
Au       4.01506446       4.01506446       0.00000000       0.00800213       0.01229234       0.01229234      -0.00000000
Au      -4.01506446      -4.01506446       0.00000000       0.00800213      -0.01229234      -0.01229234      -0.00000000
Au       4.01506446      -4.01506446      -0.00000000       0.00800213       0.01229234      -0.01229234      -0.00000000
Au       0.00000000      -4.01506446       4.01506446       0.00800213       0.00000000      -0.01229234       0.01229234
Au      -0.00000000       4.01506446       4.01506446       0.00800213       0.00000000       0.01229234       0.01229234
Au       0.00000000      -4.01506446      -4.01506446       0.00800213      -0.00000000      -0.01229234      -0.01229234
Au      -0.00000000       4.01506446      -4.01506446       0.00800213       0.00000000       0.01229234      -0.01229234
Au       4.01506446      -0.00000000      -4.01506446       0.00800213       0.01229234       0.00000000      -0.01229234
Au       4.01506446      -0.00000000       4.01506446       0.00800213       0.01229234       0.00000000       0.01229234
Au      -4.01506446       0.00000000      -4.01506446       0.00800213      -0.01229234      -0.00000000      -0.01229234
Au      -4.01506446       0.00000000       4.01506446       0.00800213      -0.01229234       0.00000000       0.01229234
Au      -2.00510657      -4.03652047       2.00510657       0.00465150       0.00131020      -0.00050937      -0.00131020
Au       2.00510657      -4.03652047       2.00510657       0.00465150      -0.00131020      -0.00050937      -0.00131020
Au      -2.00510657       4.03652047       2.00510657       0.00465150       0.00131020       0.00050937      -0.00131020
Au       2.00510657       4.03652047       2.00510657       0.00465150      -0.00131020       0.00050937      -0.00131020
Au      -2.00510657      -4.03652047      -2.00510657       0.00465150       0.00131020      -0.00050937       0.00131020
Au       2.00510657      -4.03652047      -2.00510657       0.00465150      -0.00131020      -0.00050937       0.00131020
Au      -2.00510657       4.03652047      -2.00510657       0.00465150       0.00131020       0.00050937       0.00131020
Au       2.00510657       4.03652047      -2.00510657       0.00465150      -0.00131020       0.00050937       0.00131020
Au       4.03652047       2.00510657      -2.00510657       0.00465150       0.00050937      -0.00131020       0.00131020
Au       4.03652047      -2.00510657      -2.00510657       0.00465150       0.00050937       0.00131020       0.00131020
Au       2.00510657      -2.00510657      -4.03652047       0.00465150      -0.00131020       0.00131020      -0.00050937
Au       2.00510657       2.00510657      -4.03652047       0.00465150      -0.00131020      -0.00131020      -0.00050937
Au       4.03652047       2.00510657       2.00510657       0.00465150       0.00050937      -0.00131020      -0.00131020
Au       4.03652047      -2.00510657       2.00510657       0.00465150       0.00050937       0.00131020      -0.00131020
Au       2.00510657      -2.00510657       4.03652047       0.00465150      -0.00131020       0.00131020       0.00050937
Au       2.00510657       2.00510657       4.03652047       0.00465150      -0.00131020      -0.00131020       0.00050937
Au      -4.03652047       2.00510657      -2.00510657       0.00465150      -0.00050937      -0.00131020       0.00131020
Au      -4.03652047      -2.00510657      -2.00510657       0.00465150      -0.00050937       0.00131020       0.00131020
Au      -2.00510657      -2.00510657      -4.03652047       0.00465150       0.00131020       0.00131020      -0.00050937
Au      -2.00510657       2.00510657      -4.03652047       0.00465150       0.00131020      -0.00131020      -0.00050937
Au      -4.03652047       2.00510657       2.00510657       0.00465150      -0.00050937      -0.00131020      -0.00131020
Au      -4.03652047      -2.00510657       2.00510657       0.00465150      -0.00050937       0.00131020      -0.00131020
Au      -2.00510657      -2.00510657       4.03652047       0.00465150       0.00131020       0.00131020       0.00050937
Au      -2.00510657       2.00510657       4.03652047       0.00465150       0.00131020      -0.00131020       0.00050937
Au      -0.00000000      -4.05851924       0.00000000       0.00298473      -0.00000000       0.01749589      -0.00000000
Au       0.00000000       4.05851924       0.00000000       0.00298473      -0.00000000      -0.01749589      -0.00000000
Au       4.05851924       0.00000000       0.00000000       0.00298473      -0.01749589      -0.00000000       0.00000000
Au      -0.00000000       0.00000000      -4.05851924       0.00298473       0.00000000      -0.00000000       0.01749589
Au       0.00000000       0.00000000       4.05851924       0.00298473       0.00000000       0.00000000      -0.01749589
Au      -4.05851924      -0.00000000       0.00000000       0.00298473       0.01749589       0.00000000      -0.00000000
Au      -6.00457311       6.00457311      -0.00000000       0.00346701      -0.02549847       0.02549847      -0.00000000
Au       6.00457311       6.00457311       0.00000000       0.00346701       0.02549847       0.02549847       0.00000000
Au      -6.00457311      -6.00457311      -0.00000000       0.00346701      -0.02549847      -0.02549847       0.00000000
Au       6.00457311      -6.00457311       0.00000000       0.00346701       0.02549847      -0.02549847       0.00000000
Au       0.00000000      -6.00457311       6.00457311       0.00346701      -0.00000000      -0.02549847       0.02549847
Au       0.00000000       6.00457311       6.00457311       0.00346701      -0.00000000       0.02549847       0.02549847
Au      -0.00000000      -6.00457311      -6.00457311       0.00346701       0.00000000      -0.02549847      -0.02549847
Au      -0.00000000       6.00457311      -6.00457311       0.00346701       0.00000000       0.02549847      -0.02549847
Au       6.00457311      -0.00000000      -6.00457311       0.00346701       0.02549847       0.00000000      -0.02549847
Au       6.00457311      -0.00000000       6.00457311       0.00346701       0.02549847       0.00000000       0.02549847
Au      -6.00457311       0.00000000      -6.00457311       0.00346701      -0.02549847      -0.00000000      -0.02549847
Au      -6.00457311      -0.00000000       6.00457311       0.00346701      -0.02549847       0.00000000       0.02549847
Au      -1.99788769      -6.05046843       4.00028657       0.00147436      -0.00884069      -0.00800423       0.01729414
Au       1.99788769      -6.05046843       4.00028657       0.00147436       0.00884069      -0.00800423       0.01729414
Au      -1.99788769       6.05046843       4.00028657       0.00147436      -0.00884069       0.00800423       0.01729414
Au       1.99788769       6.05046843       4.00028657       0.00147436       0.00884069       0.00800423       0.01729414
Au      -1.99788769      -6.05046843      -4.00028657       0.00147436      -0.00884069      -0.00800423      -0.01729414
Au       1.99788769      -6.05046843      -4.00028657       0.00147436       0.00884069      -0.00800423      -0.01729414
Au      -1.99788769       6.05046843      -4.00028657       0.00147436      -0.00884069       0.00800423      -0.01729414
Au       1.99788769       6.05046843      -4.00028657       0.00147436       0.00884069       0.00800423      -0.01729414
Au       6.05046843       1.99788769      -4.00028657       0.00147436       0.00800423       0.00884069      -0.01729414
Au       6.05046843      -1.99788769      -4.00028657       0.00147436       0.00800423      -0.00884069      -0.01729414
Au       4.00028657      -1.99788769      -6.05046843       0.00147436       0.01729414      -0.00884069      -0.00800423
Au       4.00028657       1.99788769      -6.05046843       0.00147436       0.01729414       0.00884069      -0.00800423
Au       6.05046843       1.99788769       4.00028657       0.00147436       0.00800423       0.00884069       0.01729414
Au       6.05046843      -1.99788769       4.00028657       0.00147436       0.00800423      -0.00884069       0.01729414
Au       4.00028657      -1.99788769       6.05046843       0.00147436       0.01729414      -0.00884069       0.00800423
Au       4.00028657       1.99788769       6.05046843       0.00147436       0.01729414       0.00884069       0.00800423
Au      -6.05046843       1.99788769      -4.00028657       0.00147436      -0.00800423       0.00884069      -0.01729414
Au      -6.05046843      -1.99788769      -4.00028657       0.00147436      -0.00800423      -0.00884069      -0.01729414
Au      -4.00028657      -1.99788769      -6.05046843       0.00147436      -0.01729414      -0.00884069      -0.00800423
Au      -4.00028657       1.99788769      -6.05046843       0.00147436      -0.01729414       0.00884069      -0.00800423
Au      -6.05046843       1.99788769       4.00028657       0.00147436      -0.00800423       0.00884069       0.01729414
Au      -6.05046843      -1.99788769       4.00028657       0.00147436      -0.00800423      -0.00884069       0.01729414
Au      -4.00028657      -1.99788769       6.05046843       0.00147436      -0.01729414      -0.00884069       0.00800423
Au      -4.00028657       1.99788769       6.05046843       0.00147436      -0.01729414       0.00884069       0.00800423
Au      -4.00028657      -6.05046843       1.99788769       0.00147436      -0.01729414      -0.00800423       0.00884069
Au       4.00028657      -6.05046843       1.99788769       0.00147436       0.01729414      -0.00800423       0.00884069
Au      -4.00028657       6.05046843       1.99788769       0.00147436      -0.01729414       0.00800423       0.00884069
Au       4.00028657       6.05046843       1.99788769       0.00147436       0.01729414       0.00800423       0.00884069
Au      -4.00028657      -6.05046843      -1.99788769       0.00147436      -0.01729414      -0.00800423      -0.00884069
Au       4.00028657      -6.05046843      -1.99788769       0.00147436       0.01729414      -0.00800423      -0.00884069
Au      -4.00028657       6.05046843      -1.99788769       0.00147436      -0.01729414       0.00800423      -0.00884069
Au       4.00028657       6.05046843      -1.99788769       0.00147436       0.01729414       0.00800423      -0.00884069
Au       6.05046843       4.00028657      -1.99788769       0.00147436       0.00800423       0.01729414      -0.00884069
Au       6.05046843      -4.00028657      -1.99788769       0.00147436       0.00800423      -0.01729414      -0.00884069
Au       1.99788769      -4.00028657      -6.05046843       0.00147436       0.00884069      -0.01729414      -0.00800423
Au       1.99788769       4.00028657      -6.05046843       0.00147436       0.00884069       0.01729414      -0.00800423
Au       6.05046843       4.00028657       1.99788769       0.00147436       0.00800423       0.01729414       0.00884069
Au       6.05046843      -4.00028657       1.99788769       0.00147436       0.00800423      -0.01729414       0.00884069
Au       1.99788769      -4.00028657       6.05046843       0.00147436       0.00884069      -0.01729414       0.00800423
Au       1.99788769       4.00028657       6.05046843       0.00147436       0.00884069       0.01729414       0.00800423
Au      -6.05046843       4.00028657      -1.99788769       0.00147436      -0.00800423       0.01729414      -0.00884069
Au      -6.05046843      -4.00028657      -1.99788769       0.00147436      -0.00800423      -0.01729414      -0.00884069
Au      -1.99788769      -4.00028657      -6.05046843       0.00147436      -0.00884069      -0.01729414      -0.00800423
Au      -1.99788769       4.00028657      -6.05046843       0.00147436      -0.00884069       0.01729414      -0.00800423
Au      -6.05046843       4.00028657       1.99788769       0.00147436      -0.00800423       0.01729414       0.00884069
Au      -6.05046843      -4.00028657       1.99788769       0.00147436      -0.00800423      -0.01729414       0.00884069
Au      -1.99788769      -4.00028657       6.05046843       0.00147436      -0.00884069      -0.01729414       0.00800423
Au      -1.99788769       4.00028657       6.05046843       0.00147436      -0.00884069       0.01729414       0.00800423
Au      -4.02136466      -4.02136466       4.02136466       0.00016472      -0.00399331      -0.00399331       0.00399331
Au       4.02136466      -4.02136466       4.02136466       0.00016472       0.00399331      -0.00399331       0.00399331
Au      -4.02136466       4.02136466       4.02136466       0.00016472      -0.00399331       0.00399331       0.00399331
Au       4.02136466       4.02136466       4.02136466       0.00016472       0.00399331       0.00399331       0.00399331
Au      -4.02136466      -4.02136466      -4.02136466       0.00016472      -0.00399331      -0.00399331      -0.00399331
Au       4.02136466      -4.02136466      -4.02136466       0.00016472       0.00399331      -0.00399331      -0.00399331
Au      -4.02136466       4.02136466      -4.02136466       0.00016472      -0.00399331       0.00399331      -0.00399331
Au       4.02136466       4.02136466      -4.02136466       0.00016472       0.00399331       0.00399331      -0.00399331
Au      -0.00000000      -6.10230229      -1.99747349      -0.00016950       0.00000000       0.00451178      -0.00757200
Au       1.99747349      -6.10230229       0.00000000      -0.00016950       0.00757200       0.00451178       0.00000000
Au      -1.99747349      -6.10230229      -0.00000000      -0.00016950      -0.00757200       0.00451178       0.00000000
Au      -0.00000000      -6.10230229       1.99747349      -0.00016950       0.00000000       0.00451178       0.00757200
Au      -0.00000000       6.10230229      -1.99747349      -0.00016950      -0.00000000      -0.00451178      -0.00757200
Au       1.99747349       6.10230229      -0.00000000      -0.00016950       0.00757200      -0.00451178      -0.00000000
Au      -1.99747349       6.10230229      -0.00000000      -0.00016950      -0.00757200      -0.00451178      -0.00000000
Au      -0.00000000       6.10230229       1.99747349      -0.00016950       0.00000000      -0.00451178       0.00757200
Au       6.10230229      -0.00000000       1.99747349      -0.00016950      -0.00451178      -0.00000000       0.00757200
Au       6.10230229      -1.99747349      -0.00000000      -0.00016950      -0.00451178      -0.00757200       0.00000000
Au       6.10230229       1.99747349      -0.00000000      -0.00016950      -0.00451178       0.00757200       0.00000000
Au       6.10230229       0.00000000      -1.99747349      -0.00016950      -0.00451178       0.00000000      -0.00757200
Au      -1.99747349       0.00000000      -6.10230229      -0.00016950      -0.00757200      -0.00000000       0.00451178
Au       0.00000000       1.99747349      -6.10230229      -0.00016950       0.00000000       0.00757200       0.00451178
Au      -0.00000000      -1.99747349      -6.10230229      -0.00016950       0.00000000      -0.00757200       0.00451178
Au       1.99747349      -0.00000000      -6.10230229      -0.00016950       0.00757200       0.00000000       0.00451178
Au      -1.99747349       0.00000000       6.10230229      -0.00016950      -0.00757200      -0.00000000      -0.00451178
Au      -0.00000000       1.99747349       6.10230229      -0.00016950       0.00000000       0.00757200      -0.00451178
Au      -0.00000000      -1.99747349       6.10230229      -0.00016950      -0.00000000      -0.00757200      -0.00451178
Au       1.99747349       0.00000000       6.10230229      -0.00016950       0.00757200       0.00000000      -0.00451178
Au      -6.10230229      -0.00000000       1.99747349      -0.00016950       0.00451178       0.00000000       0.00757200
Au      -6.10230229      -1.99747349      -0.00000000      -0.00016950       0.00451178      -0.00757200       0.00000000
Au      -6.10230229       1.99747349       0.00000000      -0.00016950       0.00451178       0.00757200       0.00000000
Au      -6.10230229       0.00000000      -1.99747349      -0.00016950       0.00451178      -0.00000000      -0.00757200
Au      -8.00385627       8.00385627      -0.00000000       0.09094521       0.03220043      -0.03220043       0.00000000
Au       8.00385627       8.00385627       0.00000000       0.09094521      -0.03220043      -0.03220043      -0.00000000
Au      -8.00385627      -8.00385627       0.00000000       0.09094521       0.03220043       0.03220043      -0.00000000
Au       8.00385627      -8.00385627       0.00000000       0.09094521      -0.03220043       0.03220043      -0.00000000
Au       0.00000000      -8.00385627       8.00385627       0.09094521       0.00000000       0.03220043      -0.03220043
Au       0.00000000       8.00385627       8.00385627       0.09094521       0.00000000      -0.03220043      -0.03220043
Au       0.00000000      -8.00385627      -8.00385627       0.09094521      -0.00000000       0.03220043       0.03220043
Au       0.00000000       8.00385627      -8.00385627       0.09094521      -0.00000000      -0.03220043       0.03220043
Au       8.00385627      -0.00000000      -8.00385627       0.09094521      -0.03220043       0.00000000       0.03220043
Au       8.00385627       0.00000000       8.00385627       0.09094521      -0.03220043      -0.00000000      -0.03220043
Au      -8.00385627      -0.00000000      -8.00385627       0.09094521       0.03220043       0.00000000       0.03220043
Au      -8.00385627       0.00000000       8.00385627       0.09094521       0.03220043      -0.00000000      -0.03220043
Au      -2.00157906      -8.06458245       6.00652179       0.03296353      -0.01130251      -0.01600988       0.01532594
Au       2.00157906      -8.06458245       6.00652179       0.03296353       0.01130251      -0.01600988       0.01532594
Au      -2.00157906       8.06458245       6.00652179       0.03296353      -0.01130251       0.01600988       0.01532594
Au       2.00157906       8.06458245       6.00652179       0.03296353       0.01130251       0.01600988       0.01532594
Au      -2.00157906      -8.06458245      -6.00652179       0.03296353      -0.01130251      -0.01600988      -0.01532594
Au       2.00157906      -8.06458245      -6.00652179       0.03296353       0.01130251      -0.01600988      -0.01532594
Au      -2.00157906       8.06458245      -6.00652179       0.03296353      -0.01130251       0.01600988      -0.01532594
Au       2.00157906       8.06458245      -6.00652179       0.03296353       0.01130251       0.01600988      -0.01532594
Au       8.06458245       2.00157906      -6.00652179       0.03296353       0.01600988       0.01130251      -0.01532594
Au       8.06458245      -2.00157906      -6.00652179       0.03296353       0.01600988      -0.01130251      -0.01532594
Au       6.00652179      -2.00157906      -8.06458245       0.03296353       0.01532594      -0.01130251      -0.01600988
Au       6.00652179       2.00157906      -8.06458245       0.03296353       0.01532594       0.01130251      -0.01600988
Au       8.06458245       2.00157906       6.00652179       0.03296353       0.01600988       0.01130251       0.01532594
Au       8.06458245      -2.00157906       6.00652179       0.03296353       0.01600988      -0.01130251       0.01532594
Au       6.00652179      -2.00157906       8.06458245       0.03296353       0.01532594      -0.01130251       0.01600988
Au       6.00652179       2.00157906       8.06458245       0.03296353       0.01532594       0.01130251       0.01600988
Au      -8.06458245       2.00157906      -6.00652179       0.03296353      -0.01600988       0.01130251      -0.01532594
Au      -8.06458245      -2.00157906      -6.00652179       0.03296353      -0.01600988      -0.01130251      -0.01532594
Au      -6.00652179      -2.00157906      -8.06458245       0.03296353      -0.01532594      -0.01130251      -0.01600988
Au      -6.00652179       2.00157906      -8.06458245       0.03296353      -0.01532594       0.01130251      -0.01600988
Au      -8.06458245       2.00157906       6.00652179       0.03296353      -0.01600988       0.01130251       0.01532594
Au      -8.06458245      -2.00157906       6.00652179       0.03296353      -0.01600988      -0.01130251       0.01532594
Au      -6.00652179      -2.00157906       8.06458245       0.03296353      -0.01532594      -0.01130251       0.01600988
Au      -6.00652179       2.00157906       8.06458245       0.03296353      -0.01532594       0.01130251       0.01600988
Au      -4.00300733      -8.08213785       4.00300733       0.03802468      -0.01400423       0.00026066       0.01400423
Au       4.00300733      -8.08213785       4.00300733       0.03802468       0.01400423       0.00026066       0.01400423
Au      -4.00300733       8.08213785       4.00300733       0.03802468      -0.01400423      -0.00026066       0.01400423
Au       4.00300733       8.08213785       4.00300733       0.03802468       0.01400423      -0.00026066       0.01400423
Au      -4.00300733      -8.08213785      -4.00300733       0.03802468      -0.01400423       0.00026066      -0.01400423
Au       4.00300733      -8.08213785      -4.00300733       0.03802468       0.01400423       0.00026066      -0.01400423
Au      -4.00300733       8.08213785      -4.00300733       0.03802468      -0.01400423      -0.00026066      -0.01400423
Au       4.00300733       8.08213785      -4.00300733       0.03802468       0.01400423      -0.00026066      -0.01400423
Au       8.08213785       4.00300733      -4.00300733       0.03802468      -0.00026066       0.01400423      -0.01400423
Au       8.08213785      -4.00300733      -4.00300733       0.03802468      -0.00026066      -0.01400423      -0.01400423
Au       4.00300733      -4.00300733      -8.08213785       0.03802468       0.01400423      -0.01400423       0.00026066
Au       4.00300733       4.00300733      -8.08213785       0.03802468       0.01400423       0.01400423       0.00026066
Au       8.08213785       4.00300733       4.00300733       0.03802468      -0.00026066       0.01400423       0.01400423
Au       8.08213785      -4.00300733       4.00300733       0.03802468      -0.00026066      -0.01400423       0.01400423
Au       4.00300733      -4.00300733       8.08213785       0.03802468       0.01400423      -0.01400423      -0.00026066
Au       4.00300733       4.00300733       8.08213785       0.03802468       0.01400423       0.01400423      -0.00026066
Au      -8.08213785       4.00300733      -4.00300733       0.03802468       0.00026066       0.01400423      -0.01400423
Au      -8.08213785      -4.00300733      -4.00300733       0.03802468       0.00026066      -0.01400423      -0.01400423
Au      -4.00300733      -4.00300733      -8.08213785       0.03802468      -0.01400423      -0.01400423       0.00026066
Au      -4.00300733       4.00300733      -8.08213785       0.03802468      -0.01400423       0.01400423       0.00026066
Au      -8.08213785       4.00300733       4.00300733       0.03802468       0.00026066       0.01400423       0.01400423
Au      -8.08213785      -4.00300733       4.00300733       0.03802468       0.00026066      -0.01400423       0.01400423
Au      -4.00300733      -4.00300733       8.08213785       0.03802468      -0.01400423      -0.01400423      -0.00026066
Au      -4.00300733       4.00300733       8.08213785       0.03802468      -0.01400423       0.01400423      -0.00026066
Au      -6.00652179      -8.06458245       2.00157906       0.03296353      -0.01532594      -0.01600988       0.01130251
Au       6.00652179      -8.06458245       2.00157906       0.03296353       0.01532594      -0.01600988       0.01130251
Au      -6.00652179       8.06458245       2.00157906       0.03296353      -0.01532594       0.01600988       0.01130251
Au       6.00652179       8.06458245       2.00157906       0.03296353       0.01532594       0.01600988       0.01130251
Au      -6.00652179      -8.06458245      -2.00157906       0.03296353      -0.01532594      -0.01600988      -0.01130251
Au       6.00652179      -8.06458245      -2.00157906       0.03296353       0.01532594      -0.01600988      -0.01130251
Au      -6.00652179       8.06458245      -2.00157906       0.03296353      -0.01532594       0.01600988      -0.01130251
Au       6.00652179       8.06458245      -2.00157906       0.03296353       0.01532594       0.01600988      -0.01130251
Au       8.06458245       6.00652179      -2.00157906       0.03296353       0.01600988       0.01532594      -0.01130251
Au       8.06458245      -6.00652179      -2.00157906       0.03296353       0.01600988      -0.01532594      -0.01130251
Au       2.00157906      -6.00652179      -8.06458245       0.03296353       0.01130251      -0.01532594      -0.01600988
Au       2.00157906       6.00652179      -8.06458245       0.03296353       0.01130251       0.01532594      -0.01600988
Au       8.06458245       6.00652179       2.00157906       0.03296353       0.01600988       0.01532594       0.01130251
Au       8.06458245      -6.00652179       2.00157906       0.03296353       0.01600988      -0.01532594       0.01130251
Au       2.00157906      -6.00652179       8.06458245       0.03296353       0.01130251      -0.01532594       0.01600988
Au       2.00157906       6.00652179       8.06458245       0.03296353       0.01130251       0.01532594       0.01600988
Au      -8.06458245       6.00652179      -2.00157906       0.03296353      -0.01600988       0.01532594      -0.01130251
Au      -8.06458245      -6.00652179      -2.00157906       0.03296353      -0.01600988      -0.01532594      -0.01130251
Au      -2.00157906      -6.00652179      -8.06458245       0.03296353      -0.01130251      -0.01532594      -0.01600988
Au      -2.00157906       6.00652179      -8.06458245       0.03296353      -0.01130251       0.01532594      -0.01600988
Au      -8.06458245       6.00652179       2.00157906       0.03296353      -0.01600988       0.01532594       0.01130251
Au      -8.06458245      -6.00652179       2.00157906       0.03296353      -0.01600988      -0.01532594       0.01130251
Au      -2.00157906      -6.00652179       8.06458245       0.03296353      -0.01130251      -0.01532594       0.01600988
Au      -2.00157906       6.00652179       8.06458245       0.03296353      -0.01130251       0.01532594       0.01600988
Au      -6.03948575      -6.03948575       4.02212194       0.00029838      -0.01906734      -0.01906734       0.01858366
Au      -4.02212194      -6.03948575       6.03948575       0.00029838      -0.01858366      -0.01906734       0.01906734
Au      -6.03948575      -4.02212194       6.03948575       0.00029838      -0.01906734      -0.01858366       0.01906734
Au       6.03948575      -6.03948575       4.02212194       0.00029838       0.01906734      -0.01906734       0.01858366
Au       4.02212194      -6.03948575       6.03948575       0.00029838       0.01858366      -0.01906734       0.01906734
Au       6.03948575      -4.02212194       6.03948575       0.00029838       0.01906734      -0.01858366       0.01906734
Au      -6.03948575       6.03948575       4.02212194       0.00029838      -0.01906734       0.01906734       0.01858366
Au      -4.02212194       6.03948575       6.03948575       0.00029838      -0.01858366       0.01906734       0.01906734
Au      -6.03948575       4.02212194       6.03948575       0.00029838      -0.01906734       0.01858366       0.01906734
Au       6.03948575       6.03948575       4.02212194       0.00029838       0.01906734       0.01906734       0.01858366
Au       4.02212194       6.03948575       6.03948575       0.00029838       0.01858366       0.01906734       0.01906734
Au       6.03948575       4.02212194       6.03948575       0.00029838       0.01906734       0.01858366       0.01906734
Au      -6.03948575      -6.03948575      -4.02212194       0.00029838      -0.01906734      -0.01906734      -0.01858366