55
Properties=species:S:1:pos:R:3:energies:R:1:forces:R:3 energy=18.16171879321898 free_energy=18.16171879321898 pbc="F F F"
Au      -0.00000000      -0.00000000      -0.00000000       0.01412910       0.00000000       0.00000000       0.00000000
Au      -2.00183872       2.00183872      -0.00000000       0.09439503       0.01823449      -0.01823449       0.00000000
Au       2.00183872       2.00183872      -0.00000000       0.09439503      -0.01823449      -0.01823449      -0.00000000
Au      -2.00183872      -2.00183872      -0.00000000       0.09439503       0.01823449       0.01823449      -0.00000000
Au       2.00183872      -2.00183872      -0.00000000       0.09439503      -0.01823449       0.01823449       0.00000000
Au      -0.00000000      -2.00183872       2.00183872       0.09439503       0.00000000       0.01823449      -0.01823449
Au       0.00000000       2.00183872       2.00183872       0.09439503      -0.00000000      -0.01823449      -0.01823449
Au       0.00000000      -2.00183872      -2.00183872       0.09439503      -0.00000000       0.01823449       0.01823449
Au       0.00000000       2.00183872      -2.00183872       0.09439503       0.00000000      -0.01823449       0.01823449
Au       2.00183872      -0.00000000      -2.00183872       0.09439503      -0.01823449       0.00000000       0.01823449
Au       2.00183872      -0.00000000       2.00183872       0.09439503      -0.01823449      -0.00000000      -0.01823449
Au      -2.00183872      -0.00000000      -2.00183872       0.09439503       0.01823449      -0.00000000       0.01823449
Au      -2.00183872      -0.00000000       2.00183872       0.09439503       0.01823449       0.00000000      -0.01823449
Au      -3.87505148       3.87505148      -0.00000000       0.55881226      -0.01737362       0.01737362       0.00000000
Au       3.87505148       3.87505148       0.00000000       0.55881226       0.01737362       0.01737362       0.00000000
Au      -3.87505148      -3.87505148       0.00000000       0.55881226      -0.01737362      -0.01737362      -0.00000000
Au       3.87505148      -3.87505148      -0.00000000       0.55881226       0.01737362      -0.01737362       0.00000000
Au       0.00000000      -3.87505148       3.87505148       0.55881226       0.00000000      -0.01737362       0.01737362
Au      -0.00000000       3.87505148       3.87505148       0.55881226      -0.00000000       0.01737362       0.01737362
Au      -0.00000000      -3.87505148      -3.87505148       0.55881226       0.00000000      -0.01737362      -0.01737362
Au       0.00000000       3.87505148      -3.87505148       0.55881226       0.00000000       0.01737362      -0.01737362
Au       3.87505148      -0.00000000      -3.87505148       0.55881226       0.01737362       0.00000000      -0.01737362
Au       3.87505148      -0.00000000       3.87505148       0.55881226       0.01737362      -0.00000000       0.01737362
Au      -3.87505148       0.00000000      -3.87505148       0.55881226      -0.01737362      -0.00000000      -0.01737362
Au      -3.87505148      -0.00000000       3.87505148       0.55881226      -0.01737362       0.00000000       0.01737362
Au      -1.98434240      -3.95356668       1.98434240       0.36305085      -0.01308811      -0.02172217       0.01308811
Au       1.98434240      -3.95356668       1.98434240       0.36305085       0.01308811      -0.02172217       0.01308811
Au      -1.98434240       3.95356668       1.98434240       0.36305085      -0.01308811       0.02172217       0.01308811
Au       1.98434240       3.95356668       1.98434240       0.36305085       0.01308811       0.02172217       0.01308811
Au      -1.98434240      -3.95356668      -1.98434240       0.36305085      -0.01308811      -0.02172217      -0.01308811
Au       1.98434240      -3.95356668      -1.98434240       0.36305085       0.01308811      -0.02172217      -0.01308811
Au      -1.98434240       3.95356668      -1.98434240       0.36305085      -0.01308811       0.02172217      -0.01308811
Au       1.98434240       3.95356668      -1.98434240       0.36305085       0.01308811       0.02172217      -0.01308811
Au       3.95356668       1.98434240      -1.98434240       0.36305085       0.02172217       0.01308811      -0.01308811
Au       3.95356668      -1.98434240      -1.98434240       0.36305085       0.02172217      -0.01308811      -0.01308811
Au       1.98434240      -1.98434240      -3.95356668       0.36305085       0.01308811      -0.01308811      -0.02172217
Au       1.98434240       1.98434240      -3.95356668       0.36305085       0.01308811       0.01308811      -0.02172217
Au       3.95356668       1.98434240       1.98434240       0.36305085       0.02172217       0.01308811       0.01308811
Au       3.95356668      -1.98434240       1.98434240       0.36305085       0.02172217      -0.01308811       0.01308811
Au       1.98434240      -1.98434240       3.95356668       0.36305085       0.01308811      -0.01308811       0.02172217
Au       1.98434240       1.98434240       3.95356668       0.36305085       0.01308811       0.01308811       0.02172217
Au      -3.95356668       1.98434240      -1.98434240       0.36305085      -0.02172217       0.01308811      -0.01308811
Au      -3.95356668      -1.98434240      -1.98434240       0.36305085      -0.02172217      -0.01308811      -0.01308811
Au      -1.98434240      -1.98434240      -3.95356668       0.36305085      -0.01308811      -0.01308811      -0.02172217
Au      -1.98434240       1.98434240      -3.95356668       0.36305085      -0.01308811       0.01308811      -0.02172217
Au      -3.95356668       1.98434240       1.98434240       0.36305085      -0.02172217       0.01308811       0.01308811
Au      -3.95356668      -1.98434240       1.98434240       0.36305085      -0.02172217      -0.01308811       0.01308811
Au      -1.98434240      -1.98434240       3.95356668       0.36305085      -0.01308811      -0.01308811       0.02172217
Au      -1.98434240       1.98434240       3.95356668       0.36305085      -0.01308811       0.01308811       0.02172217
Au      -0.00000000      -4.03210418       0.00000000       0.26598032      -0.00000000       0.03022964       0.00000000
Au       0.00000000       4.03210418       0.00000000       0.26598032      -0.00000000      -0.03022964       0.00000000
Au       4.03210418      -0.00000000      -0.00000000       0.26598032      -0.03022964       0.00000000       0.00000000
Au       0.00000000      -0.00000000      -4.03210418       0.26598032      -0.00000000      -0.00000000       0.03022964
Au      -0.00000000       0.00000000       4.03210418       0.26598032       0.00000000      -0.00000000      -0.03022964
Au      -4.03210418      -0.00000000      -0.00000000       0.26598032       0.03022964      -0.00000000       0.00000000
