309
Properties=species:S:1:pos:R:3:energies:R:1:forces:R:3 energy=56.750491606839994 free_energy=56.750491606839994 pbc="F F F"
Au      -0.00000000       0.00000000      -0.00000000       0.01192571       0.00000000      -0.00000000      -0.00000000
Au      -2.00991954       2.00991954      -0.00000000       0.00863895       0.00670180      -0.00670180      -0.00000000
Au       2.00991954       2.00991954       0.00000000       0.00863895      -0.00670180      -0.00670180      -0.00000000
Au      -2.00991954      -2.00991954      -0.00000000       0.00863895       0.00670180       0.00670180       0.00000000
Au       2.00991954      -2.00991954       0.00000000       0.00863895      -0.00670180       0.00670180      -0.00000000
Au       0.00000000      -2.00991954       2.00991954       0.00863895      -0.00000000       0.00670180      -0.00670180
Au      -0.00000000       2.00991954       2.00991954       0.00863895       0.00000000      -0.00670180      -0.00670180
Au      -0.00000000      -2.00991954      -2.00991954       0.00863895      -0.00000000       0.00670180       0.00670180
Au      -0.00000000       2.00991954      -2.00991954       0.00863895      -0.00000000      -0.00670180       0.00670180
Au       2.00991954      -0.00000000      -2.00991954       0.00863895      -0.00670180       0.00000000       0.00670180
Au       2.00991954      -0.00000000       2.00991954       0.00863895      -0.00670180       0.00000000      -0.00670180
Au      -2.00991954      -0.00000000      -2.00991954       0.00863895       0.00670180       0.00000000       0.00670180
Au      -2.00991954       0.00000000       2.00991954       0.00863895       0.00670180      -0.00000000      -0.00670180
Au      -4.00115458       4.00115458      -0.00000000       0.00424111      -0.01019170       0.01019170       0.00000000
Au       4.00115458       4.00115458      -0.00000000       0.00424111       0.01019170       0.01019170       0.00000000
Au      -4.00115458      -4.00115458       0.00000000       0.00424111      -0.01019170      -0.01019170       0.00000000
Au       4.00115458      -4.00115458       0.00000000       0.00424111       0.01019170      -0.01019170       0.00000000
Au      -0.00000000      -4.00115458       4.00115458       0.00424111       0.00000000      -0.01019170       0.01019170
Au       0.00000000       4.00115458       4.00115458       0.00424111      -0.00000000       0.01019170       0.01019170
Au      -0.00000000      -4.00115458      -4.00115458       0.00424111      -0.00000000      -0.01019170      -0.01019170
Au      -0.00000000       4.00115458      -4.00115458       0.00424111      -0.00000000       0.01019170      -0.01019170
Au       4.00115458      -0.00000000      -4.00115458       0.00424111       0.01019170       0.00000000      -0.01019170
Au       4.00115458      -0.00000000       4.00115458       0.00424111       0.01019170       0.00000000       0.01019170
Au      -4.00115458      -0.00000000      -4.00115458       0.00424111      -0.01019170       0.00000000      -0.01019170
Au      -4.00115458      -0.00000000       4.00115458       0.00424111      -0.01019170       0.00000000       0.01019170
Au      -2.00083420      -4.03523830       2.00083420       0.00169287      -0.00560097       0.00495347       0.00560097
Au       2.00083420      -4.03523830       2.00083420       0.00169287       0.00560097       0.00495347       0.00560097
Au      -2.00083420       4.03523830       2.00083420       0.00169287      -0.00560097      -0.00495347       0.00560097
Au       2.00083420       4.03523830       2.00083420       0.00169287       0.00560097      -0.00495347       0.00560097
Au      -2.00083420      -4.03523830      -2.00083420       0.00169287      -0.00560097       0.00495347      -0.00560097
Au       2.00083420      -4.03523830      -2.00083420       0.00169287       0.00560097       0.00495347      -0.00560097
Au      -2.00083420       4.03523830      -2.00083420       0.00169287      -0.00560097      -0.00495347      -0.00560097
Au       2.00083420       4.03523830      -2.00083420       0.00169287       0.00560097      -0.00495347      -0.00560097
Au       4.03523830       2.00083420      -2.00083420       0.00169287      -0.00495347       0.00560097      -0.00560097
Au       4.03523830      -2.00083420      -2.00083420       0.00169287      -0.00495347      -0.00560097      -0.00560097
Au       2.00083420      -2.00083420      -4.03523830       0.00169287       0.00560097      -0.00560097       0.00495347
Au       2.00083420       2.00083420      -4.03523830       0.00169287       0.00560097       0.00560097       0.00495347
Au       4.03523830       2.00083420       2.00083420       0.00169287      -0.00495347       0.00560097       0.00560097
Au       4.03523830      -2.00083420       2.00083420       0.00169287      -0.00495347      -0.00560097       0.00560097
Au       2.00083420      -2.00083420       4.03523830       0.00169287       0.00560097      -0.00560097      -0.00495347
Au       2.00083420       2.00083420       4.03523830       0.00169287       0.00560097       0.00560097      -0.00495347
Au      -4.03523830       2.00083420      -2.00083420       0.00169287       0.00495347       0.00560097      -0.00560097
Au      -4.03523830      -2.00083420      -2.00083420       0.00169287       0.00495347      -0.00560097      -0.00560097
Au      -2.00083420      -2.00083420      -4.03523830       0.00169287      -0.00560097      -0.00560097       0.00495347
Au      -2.00083420       2.00083420      -4.03523830       0.00169287      -0.00560097       0.00560097       0.00495347
Au      -4.03523830       2.00083420       2.00083420       0.00169287       0.00495347       0.00560097       0.00560097
Au      -4.03523830      -2.00083420       2.00083420       0.00169287       0.00495347      -0.00560097       0.00560097
Au      -2.00083420      -2.00083420       4.03523830       0.00169287      -0.00560097      -0.00560097      -0.00495347
Au      -2.00083420       2.00083420       4.03523830       0.00169287      -0.00560097       0.00560097      -0.00495347
Au      -0.00000000      -4.07051107      -0.00000000      -0.00124278       0.00000000       0.02208757       0.00000000
Au      -0.00000000       4.07051107      -0.00000000      -0.00124278       0.00000000      -0.02208757       0.00000000
Au       4.07051107       0.00000000      -0.00000000      -0.00124278      -0.02208757      -0.00000000      -0.00000000
Au       0.00000000       0.00000000      -4.07051107      -0.00124278      -0.00000000      -0.00000000       0.02208757
Au      -0.00000000      -0.00000000       4.07051107      -0.00124278       0.00000000       0.00000000      -0.02208757
Au      -4.07051107      -0.00000000       0.00000000      -0.00124278       0.02208757       0.00000000       0.00000000
Au      -5.99295789       5.99295789      -0.00000000       0.09063064      -0.00215594       0.00215594       0.00000000
Au       5.99295789       5.99295789       0.00000000       0.09063064       0.00215594       0.00215594       0.00000000
Au      -5.99295789      -5.99295789      -0.00000000       0.09063064      -0.00215594      -0.00215594       0.00000000
Au       5.99295789      -5.99295789       0.00000000       0.09063064       0.00215594      -0.00215594      -0.00000000
Au       0.00000000      -5.99295789       5.99295789       0.09063064      -0.00000000      -0.00215594       0.00215594
Au      -0.00000000       5.99295789       5.99295789       0.09063064       0.00000000       0.00215594       0.00215594
Au       0.00000000      -5.99295789      -5.99295789       0.09063064      -0.00000000      -0.00215594      -0.00215594
Au       0.00000000       5.99295789      -5.99295789       0.09063064      -0.00000000       0.00215594      -0.00215594
Au       5.99295789      -0.00000000      -5.99295789       0.09063064       0.00215594       0.00000000      -0.00215594
Au       5.99295789      -0.00000000       5.99295789       0.09063064       0.00215594       0.00000000       0.00215594
Au      -5.99295789      -0.00000000      -5.99295789       0.09063064      -0.00215594       0.00000000      -0.00215594
Au      -5.99295789      -0.00000000       5.99295789       0.09063064      -0.00215594       0.00000000       0.00215594
Au      -2.00082630      -6.05873747       3.99858218       0.03544145      -0.01111677       0.00401381       0.01515622
Au       2.00082630      -6.05873747       3.99858218       0.03544145       0.01111677       0.00401381       0.01515622
Au      -2.00082630       6.05873747       3.99858218       0.03544145      -0.01111677      -0.00401381       0.01515622
Au       2.00082630       6.05873747       3.99858218       0.03544145       0.01111677      -0.00401381       0.01515622
Au      -2.00082630      -6.05873747      -3.99858218       0.03544145      -0.01111677       0.00401381      -0.01515622
Au       2.00082630      -6.05873747      -3.99858218       0.03544145       0.01111677       0.00401381      -0.01515622
Au      -2.00082630       6.05873747      -3.99858218       0.03544145      -0.01111677      -0.00401381      -0.01515622
Au       2.00082630       6.05873747      -3.99858218       0.03544145       0.01111677      -0.00401381      -0.01515622
Au       6.05873747       2.00082630      -3.99858218       0.03544145      -0.00401381       0.01111677      -0.01515622
Au       6.05873747      -2.00082630      -3.99858218       0.03544145      -0.00401381      -0.01111677      -0.01515622
Au       3.99858218      -2.00082630      -6.05873747       0.03544145       0.01515622      -0.01111677       0.00401381
Au       3.99858218       2.00082630      -6.05873747       0.03544145       0.01515622       0.01111677       0.00401381
Au       6.05873747       2.00082630       3.99858218       0.03544145      -0.00401381       0.01111677       0.01515622
Au       6.05873747      -2.00082630       3.99858218       0.03544145      -0.00401381      -0.01111677       0.01515622
Au       3.99858218      -2.00082630       6.05873747       0.03544145       0.01515622      -0.01111677      -0.00401381
Au       3.99858218       2.00082630       6.05873747       0.03544145       0.01515622       0.01111677      -0.00401381
Au      -6.05873747       2.00082630      -3.99858218       0.03544145       0.00401381       0.01111677      -0.01515622
Au      -6.05873747      -2.00082630      -3.99858218       0.03544145       0.00401381      -0.01111677      -0.01515622
Au      -3.99858218      -2.00082630      -6.05873747       0.03544145      -0.01515622      -0.01111677       0.00401381
Au      -3.99858218       2.00082630      -6.05873747       0.03544145      -0.01515622       0.01111677       0.00401381
Au      -6.05873747       2.00082630       3.99858218       0.03544145       0.00401381       0.01111677       0.01515622
Au      -6.05873747      -2.00082630       3.99858218       0.03544145       0.00401381      -0.01111677       0.01515622
Au      -3.99858218      -2.00082630       6.05873747       0.03544145      -0.01515622      -0.01111677      -0.00401381
Au      -3.99858218       2.00082630       6.05873747       0.03544145      -0.01515622       0.01111677      -0.00401381
Au      -3.99858218      -6.05873747       2.00082630       0.03544145      -0.01515622       0.00401381       0.01111677
Au       3.99858218      -6.05873747       2.00082630       0.03544145       0.01515622       0.00401381       0.01111677
Au      -3.99858218       6.05873747       2.00082630       0.03544145      -0.01515622      -0.00401381       0.01111677
Au       3.99858218       6.05873747       2.00082630       0.03544145       0.01515622      -0.00401381       0.01111677
Au      -3.99858218      -6.05873747      -2.00082630       0.03544145      -0.01515622       0.00401381      -0.01111677
Au       3.99858218      -6.05873747      -2.00082630       0.03544145       0.01515622       0.00401381      -0.01111677
Au      -3.99858218       6.05873747      -2.00082630       0.03544145      -0.01515622      -0.00401381      -0.01111677
Au       3.99858218       6.05873747      -2.00082630       0.03544145       0.01515622      -0.00401381      -0.01111677
Au       6.05873747       3.99858218      -2.00082630       0.03544145      -0.00401381       0.01515622      -0.01111677
Au       6.05873747      -3.99858218      -2.00082630       0.03544145      -0.00401381      -0.01515622      -0.01111677
Au       2.00082630      -3.99858218      -6.05873747       0.03544145       0.01111677      -0.01515622       0.00401381
Au       2.00082630       3.99858218      -6.05873747       0.03544145       0.01111677       0.01515622       0.00401381
Au       6.05873747       3.99858218       2.00082630       0.03544145      -0.00401381       0.01515622       0.01111677
Au       6.05873747      -3.99858218       2.00082630       0.03544145      -0.00401381      -0.01515622       0.01111677
Au       2.00082630      -3.99858218       6.05873747       0.03544145       0.01111677      -0.01515622      -0.00401381
Au       2.00082630       3.99858218       6.05873747       0.03544145       0.01111677       0.01515622      -0.00401381
Au      -6.05873747       3.99858218      -2.00082630       0.03544145       0.00401381       0.01515622      -0.01111677
Au      -6.05873747      -3.99858218      -2.00082630       0.03544145       0.00401381      -0.01515622      -0.01111677
Au      -2.00082630      -3.99858218      -6.05873747       0.03544145      -0.01111677      -0.01515622       0.00401381
Au      -2.00082630       3.99858218      -6.05873747       0.03544145      -0.01111677       0.01515622       0.00401381
Au      -6.05873747       3.99858218       2.00082630       0.03544145       0.00401381       0.01515622       0.01111677
Au      -6.05873747      -3.99858218       2.00082630       0.03544145       0.00401381      -0.01515622       0.01111677
Au      -2.00082630      -3.99858218       6.05873747       0.03544145      -0.01111677      -0.01515622      -0.00401381
Au      -2.00082630       3.99858218       6.05873747       0.03544145      -0.01111677       0.01515622      -0.00401381
Au      -4.03067683      -4.03067683       4.03067683      -0.00299557      -0.00199185      -0.00199185       0.00199185
Au       4.03067683      -4.03067683       4.03067683      -0.00299557       0.00199185      -0.00199185       0.00199185
Au      -4.03067683       4.03067683       4.03067683      -0.00299557      -0.00199185       0.00199185       0.00199185
Au       4.03067683       4.03067683       4.03067683      -0.00299557       0.00199185       0.00199185       0.00199185
Au      -4.03067683      -4.03067683      -4.03067683      -0.00299557      -0.00199185      -0.00199185      -0.00199185
Au       4.03067683      -4.03067683      -4.03067683      -0.00299557       0.00199185      -0.00199185      -0.00199185
Au      -4.03067683       4.03067683      -4.03067683      -0.00299557      -0.00199185       0.00199185      -0.00199185
Au       4.03067683       4.03067683      -4.03067683      -0.00299557       0.00199185       0.00199185      -0.00199185
Au      -0.00000000      -6.13799433      -1.99552263       0.02388814       0.00000000       0.02550504      -0.01405048
Au       1.99552263      -6.13799433      -0.00000000       0.02388814       0.01405048       0.02550504       0.00000000
Au      -1.99552263      -6.13799433      -0.00000000       0.02388814      -0.01405048       0.02550504       0.00000000
Au       0.00000000      -6.13799433       1.99552263       0.02388814       0.00000000       0.02550504       0.01405048
Au      -0.00000000       6.13799433      -1.99552263       0.02388814       0.00000000      -0.02550504      -0.01405048
Au       1.99552263       6.13799433      -0.00000000       0.02388814       0.01405048      -0.02550504      -0.00000000
Au      -1.99552263       6.13799433       0.00000000       0.02388814      -0.01405048      -0.02550504      -0.00000000
Au       0.00000000       6.13799433       1.99552263       0.02388814      -0.00000000      -0.02550504       0.01405048
Au       6.13799433      -0.00000000       1.99552263       0.02388814      -0.02550504       0.00000000       0.01405048
Au       6.13799433      -1.99552263       0.00000000       0.02388814      -0.02550504      -0.01405048       0.00000000
Au       6.13799433       1.99552263       0.00000000       0.02388814      -0.02550504       0.01405048       0.00000000
Au       6.13799433       0.00000000      -1.99552263       0.02388814      -0.02550504      -0.00000000      -0.01405048
Au      -1.99552263      -0.00000000      -6.13799433       0.02388814      -0.01405048       0.00000000       0.02550504
Au       0.00000000       1.99552263      -6.13799433       0.02388814      -0.00000000       0.01405048       0.02550504
Au       0.00000000      -1.99552263      -6.13799433       0.02388814      -0.00000000      -0.01405048       0.02550504
Au       1.99552263      -0.00000000      -6.13799433       0.02388814       0.01405048       0.00000000       0.02550504
Au      -1.99552263       0.00000000       6.13799433       0.02388814      -0.01405048      -0.00000000      -0.02550504
Au      -0.00000000       1.99552263       6.13799433       0.02388814      -0.00000000       0.01405048      -0.02550504
Au      -0.00000000      -1.99552263       6.13799433       0.02388814      -0.00000000      -0.01405048      -0.02550504
Au       1.99552263       0.00000000       6.13799433       0.02388814       0.01405048       0.00000000      -0.02550504
Au      -6.13799433      -0.00000000       1.99552263       0.02388814       0.02550504      -0.00000000       0.01405048
Au      -6.13799433      -1.99552263      -0.00000000       0.02388814       0.02550504      -0.01405048       0.00000000
Au      -6.13799433       1.99552263      -0.00000000       0.02388814       0.02550504       0.01405048       0.00000000
Au      -6.13799433      -0.00000000      -1.99552263       0.02388814       0.02550504       0.00000000      -0.01405048
Au      -7.87705455       7.87705455      -0.00000000       0.55419956       0.00788294      -0.00788294       0.00000000
Au       7.87705455       7.87705455       0.00000000       0.55419956      -0.00788294      -0.00788294      -0.00000000
Au      -7.87705455      -7.87705455      -0.00000000       0.55419956       0.00788294       0.00788294      -0.00000000
Au       7.87705455      -7.87705455       0.00000000       0.55419956      -0.00788294       0.00788294      -0.00000000
Au       0.00000000      -7.87705455       7.87705455       0.55419956      -0.00000000       0.00788294      -0.00788294
Au       0.00000000       7.87705455       7.87705455       0.55419956       0.00000000      -0.00788294      -0.00788294
Au       0.00000000      -7.87705455      -7.87705455       0.55419956      -0.00000000       0.00788294       0.00788294
Au      -0.00000000       7.87705455      -7.87705455       0.55419956       0.00000000      -0.00788294       0.00788294
Au       7.87705455      -0.00000000      -7.87705455       0.55419956      -0.00788294       0.00000000       0.00788294
Au       7.87705455      -0.00000000       7.87705455       0.55419956      -0.00788294       0.00000000      -0.00788294
Au      -7.87705455      -0.00000000      -7.87705455       0.55419956       0.00788294       0.00000000       0.00788294
Au      -7.87705455      -0.00000000       7.87705455       0.55419956       0.00788294       0.00000000      -0.00788294
Au      -1.98423473      -7.95513740       5.99939417       0.36568613      -0.01581416      -0.02157775      -0.01773082
Au       1.98423473      -7.95513740       5.99939417       0.36568613       0.01581416      -0.02157775      -0.01773082
Au      -1.98423473       7.95513740       5.99939417       0.36568613      -0.01581416       0.02157775      -0.01773082
Au       1.98423473       7.95513740       5.99939417       0.36568613       0.01581416       0.02157775      -0.01773082
Au      -1.98423473      -7.95513740      -5.99939417       0.36568613      -0.01581416      -0.02157775       0.01773082
Au       1.98423473      -7.95513740      -5.99939417       0.36568613       0.01581416      -0.02157775       0.01773082
Au      -1.98423473       7.95513740      -5.99939417       0.36568613      -0.01581416       0.02157775       0.01773082
Au       1.98423473       7.95513740      -5.99939417       0.36568613       0.01581416       0.02157775       0.01773082
Au       7.95513740       1.98423473      -5.99939417       0.36568613       0.02157775       0.01581416       0.01773082
Au       7.95513740      -1.98423473      -5.99939417       0.36568613       0.02157775      -0.01581416       0.01773082
Au       5.99939417      -1.98423473      -7.95513740       0.36568613      -0.01773082      -0.01581416      -0.02157775
Au       5.99939417       1.98423473      -7.95513740       0.36568613      -0.01773082       0.01581416      -0.02157775
Au       7.95513740       1.98423473       5.99939417       0.36568613       0.02157775       0.01581416      -0.01773082
Au       7.95513740      -1.98423473       5.99939417       0.36568613       0.02157775      -0.01581416      -0.01773082
Au       5.99939417      -1.98423473       7.95513740       0.36568613      -0.01773082      -0.01581416       0.02157775
Au       5.99939417       1.98423473       7.95513740       0.36568613      -0.01773082       0.01581416       0.02157775
Au      -7.95513740       1.98423473      -5.99939417       0.36568613      -0.02157775       0.01581416       0.01773082
Au      -7.95513740      -1.98423473      -5.99939417       0.36568613      -0.02157775      -0.01581416       0.01773082
Au      -5.99939417      -1.98423473      -7.95513740       0.36568613       0.01773082      -0.01581416      -0.02157775
Au      -5.99939417       1.98423473      -7.95513740       0.36568613       0.01773082       0.01581416      -0.02157775
Au      -7.95513740       1.98423473       5.99939417       0.36568613      -0.02157775       0.01581416      -0.01773082
Au      -7.95513740      -1.98423473       5.99939417       0.36568613      -0.02157775      -0.01581416      -0.01773082
Au      -5.99939417      -1.98423473       7.95513740       0.36568613       0.01773082      -0.01581416       0.02157775
Au      -5.99939417       1.98423473       7.95513740       0.36568613       0.01773082       0.01581416       0.02157775
Au      -3.99454349      -7.95022293       3.99454349       0.37000038      -0.00157461      -0.02210453       0.00157461
Au       3.99454349      -7.95022293       3.99454349       0.37000038       0.00157461      -0.02210453       0.00157461
Au      -3.99454349       7.95022293       3.99454349       0.37000038      -0.00157461       0.02210453       0.00157461
Au       3.99454349       7.95022293       3.99454349       0.37000038       0.00157461       0.02210453       0.00157461
Au      -3.99454349      -7.95022293      -3.99454349       0.37000038      -0.00157461      -0.02210453      -0.00157461
Au       3.99454349      -7.95022293      -3.99454349       0.37000038       0.00157461      -0.02210453      -0.00157461
Au      -3.99454349       7.95022293      -3.99454349       0.37000038      -0.00157461       0.02210453      -0.00157461
Au       3.99454349       7.95022293      -3.99454349       0.37000038       0.00157461       0.02210453      -0.00157461
Au       7.95022293       3.99454349      -3.99454349       0.37000038       0.02210453       0.00157461      -0.00157461
Au       7.95022293      -3.99454349      -3.99454349       0.37000038       0.02210453      -0.00157461      -0.00157461
Au       3.99454349      -3.99454349      -7.95022293       0.37000038       0.00157461      -0.00157461      -0.02210453
Au       3.99454349       3.99454349      -7.95022293       0.37000038       0.00157461       0.00157461      -0.02210453
Au       7.95022293       3.99454349       3.99454349       0.37000038       0.02210453       0.00157461       0.00157461
Au       7.95022293      -3.99454349       3.99454349       0.37000038       0.02210453      -0.00157461       0.00157461
Au       3.99454349      -3.99454349       7.95022293       0.37000038       0.00157461      -0.00157461       0.02210453
Au       3.99454349       3.99454349       7.95022293       0.37000038       0.00157461       0.00157461       0.02210453
Au      -7.95022293       3.99454349      -3.99454349       0.37000038      -0.02210453       0.00157461      -0.00157461
Au      -7.95022293      -3.99454349      -3.99454349       0.37000038      -0.02210453      -0.00157461      -0.00157461
Au      -3.99454349      -3.99454349      -7.95022293       0.37000038      -0.00157461      -0.00157461      -0.02210453
Au      -3.99454349       3.99454349      -7.95022293       0.37000038      -0.00157461       0.00157461      -0.02210453
Au      -7.95022293       3.99454349       3.99454349       0.37000038      -0.02210453       0.00157461       0.00157461
Au      -7.95022293      -3.99454349       3.99454349       0.37000038      -0.02210453      -0.00157461       0.00157461
Au      -3.99454349      -3.99454349       7.95022293       0.37000038      -0.00157461      -0.00157461       0.02210453
Au      -3.99454349       3.99454349       7.95022293       0.37000038      -0.00157461       0.00157461       0.02210453
Au      -5.99939417      -7.95513740       1.98423473       0.36568613       0.01773082      -0.02157775       0.01581416
Au       5.99939417      -7.95513740       1.98423473       0.36568613      -0.01773082      -0.02157775       0.01581416
Au      -5.99939417       7.95513740       1.98423473       0.36568613       0.01773082       0.02157775       0.01581416
Au       5.99939417       7.95513740       1.98423473       0.36568613      -0.01773082       0.02157775       0.01581416
Au      -5.99939417      -7.95513740      -1.98423473       0.36568613       0.01773082      -0.02157775      -0.01581416
Au       5.99939417      -7.95513740      -1.98423473       0.36568613      -0.01773082      -0.02157775      -0.01581416
Au      -5.99939417       7.95513740      -1.98423473       0.36568613       0.01773082       0.02157775      -0.01581416
Au       5.99939417       7.95513740      -1.98423473       0.36568613      -0.01773082       0.02157775      -0.01581416
Au       7.95513740       5.99939417      -1.98423473       0.36568613       0.02157775      -0.01773082      -0.01581416
Au       7.95513740      -5.99939417      -1.98423473       0.36568613       0.02157775       0.01773082      -0.01581416
Au       1.98423473      -5.99939417      -7.95513740       0.36568613       0.01581416       0.01773082      -0.02157775
Au       1.98423473       5.99939417      -7.95513740       0.36568613       0.01581416      -0.01773082      -0.02157775
Au       7.95513740       5.99939417       1.98423473       0.36568613       0.02157775      -0.01773082       0.01581416
Au       7.95513740      -5.99939417       1.98423473       0.36568613       0.02157775       0.01773082       0.01581416
Au       1.98423473      -5.99939417       7.95513740       0.36568613       0.01581416       0.01773082       0.02157775
Au       1.98423473       5.99939417       7.95513740       0.36568613       0.01581416      -0.01773082       0.02157775
Au      -7.95513740       5.99939417      -1.98423473       0.36568613      -0.02157775      -0.01773082      -0.01581416
Au      -7.95513740      -5.99939417      -1.98423473       0.36568613      -0.02157775       0.01773082      -0.01581416
Au      -1.98423473      -5.99939417      -7.95513740       0.36568613      -0.01581416       0.01773082      -0.02157775
Au      -1.98423473       5.99939417      -7.95513740       0.36568613      -0.01581416      -0.01773082      -0.02157775
Au      -7.95513740       5.99939417       1.98423473       0.36568613      -0.02157775      -0.01773082       0.01581416
Au      -7.95513740      -5.99939417       1.98423473       0.36568613      -0.02157775       0.01773082       0.01581416
Au      -1.98423473      -5.99939417       7.95513740       0.36568613      -0.01581416       0.01773082       0.02157775
Au      -1.98423473       5.99939417       7.95513740       0.36568613      -0.01581416      -0.01773082       0.02157775
Au      -6.02216375      -6.02216375       4.00549166       0.21366652      -0.01919225      -0.01919225       0.02241204
Au      -4.00549166      -6.02216375       6.02216375       0.21366652      -0.02241204      -0.01919225       0.01919225
Au      -6.02216375      -4.00549166       6.02216375       0.21366652      -0.01919225      -0.02241204       0.01919225
Au       6.02216375      -6.02216375       4.00549166       0.21366652       0.01919225      -0.01919225       0.02241204
Au       4.00549166      -6.02216375       6.02216375       0.21366652       0.02241204      -0.01919225       0.01919225
Au       6.02216375      -4.00549166       6.02216375       0.21366652       0.01919225      -0.02241204       0.01919225
Au      -6.02216375       6.02216375       4.00549166       0.21366652      -0.01919225       0.01919225       0.02241204
Au      -4.00549166       6.02216375       6.02216375       0.21366652      -0.02241204       0.01919225       0.01919225
Au      -6.02216375       4.00549166       6.02216375       0.21366652      -0.01919225       0.02241204       0.01919225
Au       6.02216375       6.02216375       4.00549166       0.21366652       0.01919225       0.01919225       0.02241204
Au       4.00549166       6.02216375       6.02216375       0.21366652       0.02241204       0.01919225       0.01919225
Au       6.02216375       4.00549166       6.02216375       0.21366652       0.01919225       0.02241204       0.01919225
Au      -6.02216375      -6.02216375      -4.00549166       0.21366652      -0.01919225      -0.01919225      -0.02241204