147
Properties=species:S:1:pos:R:3:energies:R:1:forces:R:3 energy=34.70183311196145 free_energy=34.70183311196145 pbc="F F F"
Au       0.00000000      -0.00000000       0.00000000       0.02695414      -0.00000000       0.00000000      -0.00000000
Au      -2.00116600       2.00116600      -0.00000000       0.00459551      -0.00215723       0.00215723       0.00000000
Au       2.00116600       2.00116600      -0.00000000       0.00459551       0.00215723       0.00215723      -0.00000000
Au      -2.00116600      -2.00116600      -0.00000000       0.00459551      -0.00215723      -0.00215723       0.00000000
Au       2.00116600      -2.00116600       0.00000000       0.00459551       0.00215723      -0.00215723      -0.00000000
Au       0.00000000      -2.00116600       2.00116600       0.00459551      -0.00000000      -0.00215723       0.00215723
Au       0.00000000       2.00116600       2.00116600       0.00459551       0.00000000       0.00215723       0.00215723
Au      -0.00000000      -2.00116600      -2.00116600       0.00459551       0.00000000      -0.00215723      -0.00215723
Au       0.00000000       2.00116600      -2.00116600       0.00459551      -0.00000000       0.00215723      -0.00215723
Au       2.00116600       0.00000000      -2.00116600       0.00459551       0.00215723      -0.00000000      -0.00215723
Au       2.00116600      -0.00000000       2.00116600       0.00459551       0.00215723       0.00000000       0.00215723
Au      -2.00116600      -0.00000000      -2.00116600       0.00459551      -0.00215723       0.00000000      -0.00215723
Au      -2.00116600       0.00000000       2.00116600       0.00459551      -0.00215723       0.00000000       0.00215723
Au      -3.99161675       3.99161675       0.00000000       0.09417831      -0.00406402       0.00406402      -0.00000000
Au       3.99161675       3.99161675      -0.00000000       0.09417831       0.00406402       0.00406402       0.00000000
Au      -3.99161675      -3.99161675      -0.00000000       0.09417831      -0.00406402      -0.00406402      -0.00000000
Au       3.99161675      -3.99161675      -0.00000000       0.09417831       0.00406402      -0.00406402       0.00000000
Au       0.00000000      -3.99161675       3.99161675       0.09417831      -0.00000000      -0.00406402       0.00406402
Au       0.00000000       3.99161675       3.99161675       0.09417831       0.00000000       0.00406402       0.00406402
Au      -0.00000000      -3.99161675      -3.99161675       0.09417831       0.00000000      -0.00406402      -0.00406402
Au       0.00000000       3.99161675      -3.99161675       0.09417831       0.00000000       0.00406402      -0.00406402
Au       3.99161675      -0.00000000      -3.99161675       0.09417831       0.00406402       0.00000000      -0.00406402
Au       3.99161675       0.00000000       3.99161675       0.09417831       0.00406402       0.00000000       0.00406402
Au      -3.99161675      -0.00000000      -3.99161675       0.09417831      -0.00406402       0.00000000      -0.00406402
Au      -3.99161675      -0.00000000       3.99161675       0.09417831      -0.00406402       0.00000000       0.00406402
Au      -2.00003165      -4.05024450       2.00003165       0.03131559      -0.01234746       0.00943398       0.01234746
Au       2.00003165      -4.05024450       2.00003165       0.03131559       0.01234746       0.00943398       0.01234746
Au      -2.00003165       4.05024450       2.00003165       0.03131559      -0.01234746      -0.00943398       0.01234746
Au       2.00003165       4.05024450       2.00003165       0.03131559       0.01234746      -0.00943398       0.01234746
Au      -2.00003165      -4.05024450      -2.00003165       0.03131559      -0.01234746       0.00943398      -0.01234746
Au       2.00003165      -4.05024450      -2.00003165       0.03131559       0.01234746       0.00943398      -0.01234746
Au      -2.00003165       4.05024450      -2.00003165       0.03131559      -0.01234746      -0.00943398      -0.01234746
Au       2.00003165       4.05024450      -2.00003165       0.03131559       0.01234746      -0.00943398      -0.01234746
Au       4.05024450       2.00003165      -2.00003165       0.03131559      -0.00943398       0.01234746      -0.01234746
Au       4.05024450      -2.00003165      -2.00003165       0.03131559      -0.00943398      -0.01234746      -0.01234746
Au       2.00003165      -2.00003165      -4.05024450       0.03131559       0.01234746      -0.01234746       0.00943398
Au       2.00003165       2.00003165      -4.05024450       0.03131559       0.01234746       0.01234746       0.00943398
Au       4.05024450       2.00003165       2.00003165       0.03131559      -0.00943398       0.01234746       0.01234746
Au       4.05024450      -2.00003165       2.00003165       0.03131559      -0.00943398      -0.01234746       0.01234746
Au       2.00003165      -2.00003165       4.05024450       0.03131559       0.01234746      -0.01234746      -0.00943398
Au       2.00003165       2.00003165       4.05024450       0.03131559       0.01234746       0.01234746      -0.00943398
Au      -4.05024450       2.00003165      -2.00003165       0.03131559       0.00943398       0.01234746      -0.01234746
Au      -4.05024450      -2.00003165      -2.00003165       0.03131559       0.00943398      -0.01234746      -0.01234746
Au      -2.00003165      -2.00003165      -4.05024450       0.03131559      -0.01234746      -0.01234746       0.00943398
Au      -2.00003165       2.00003165      -4.05024450       0.03131559      -0.01234746       0.01234746       0.00943398
Au      -4.05024450       2.00003165       2.00003165       0.03131559       0.00943398       0.01234746       0.01234746
Au      -4.05024450      -2.00003165       2.00003165       0.03131559       0.00943398      -0.01234746       0.01234746
Au      -2.00003165      -2.00003165       4.05024450       0.03131559      -0.01234746      -0.01234746      -0.00943398
Au      -2.00003165       2.00003165       4.05024450       0.03131559      -0.01234746       0.01234746      -0.00943398
Au      -0.00000000      -4.10774163       0.00000000       0.02310175      -0.00000000       0.04443721      -0.00000000
Au       0.00000000       4.10774163       0.00000000       0.02310175      -0.00000000      -0.04443721      -0.00000000
Au       4.10774163       0.00000000      -0.00000000       0.02310175      -0.04443721      -0.00000000      -0.00000000
Au      -0.00000000      -0.00000000      -4.10774163       0.02310175       0.00000000      -0.00000000       0.04443721
Au       0.00000000       0.00000000       4.10774163       0.02310175       0.00000000       0.00000000      -0.04443721
Au      -4.10774163      -0.00000000       0.00000000       0.02310175       0.04443721       0.00000000       0.00000000
Au      -5.87517958       5.87517958      -0.00000000       0.55553971       0.01298426      -0.01298426       0.00000000
Au       5.87517958       5.87517958      -0.00000000       0.55553971      -0.01298426      -0.01298426       0.00000000
Au      -5.87517958      -5.87517958       0.00000000       0.55553971       0.01298426       0.01298426      -0.00000000
Au       5.87517958      -5.87517958      -0.00000000       0.55553971      -0.01298426       0.01298426       0.00000000
Au       0.00000000      -5.87517958       5.87517958       0.55553971      -0.00000000       0.01298426      -0.01298426
Au       0.00000000       5.87517958       5.87517958       0.55553971       0.00000000      -0.01298426      -0.01298426
Au      -0.00000000      -5.87517958      -5.87517958       0.55553971       0.00000000       0.01298426       0.01298426
Au      -0.00000000       5.87517958      -5.87517958       0.55553971       0.00000000      -0.01298426       0.01298426
Au       5.87517958      -0.00000000      -5.87517958       0.55553971      -0.01298426       0.00000000       0.01298426
Au       5.87517958       0.00000000       5.87517958       0.55553971      -0.01298426       0.00000000      -0.01298426
Au      -5.87517958      -0.00000000      -5.87517958       0.55553971       0.01298426      -0.00000000       0.01298426
Au      -5.87517958      -0.00000000       5.87517958       0.55553971       0.01298426      -0.00000000      -0.01298426
Au      -1.98126547      -5.94940515       3.99289760       0.36665240      -0.01019731      -0.01497795      -0.01025933
Au       1.98126547      -5.94940515       3.99289760       0.36665240       0.01019731      -0.01497795      -0.01025933
Au      -1.98126547       5.94940515       3.99289760       0.36665240      -0.01019731       0.01497795      -0.01025933
Au       1.98126547       5.94940515       3.99289760       0.36665240       0.01019731       0.01497795      -0.01025933
Au      -1.98126547      -5.94940515      -3.99289760       0.36665240      -0.01019731      -0.01497795       0.01025933
Au       1.98126547      -5.94940515      -3.99289760       0.36665240       0.01019731      -0.01497795       0.01025933
Au      -1.98126547       5.94940515      -3.99289760       0.36665240      -0.01019731       0.01497795       0.01025933
Au       1.98126547       5.94940515      -3.99289760       0.36665240       0.01019731       0.01497795       0.01025933
Au       5.94940515       1.98126547      -3.99289760       0.36665240       0.01497795       0.01019731       0.01025933
Au       5.94940515      -1.98126547      -3.99289760       0.36665240       0.01497795      -0.01019731       0.01025933
Au       3.99289760      -1.98126547      -5.94940515       0.36665240      -0.01025933      -0.01019731      -0.01497795
Au       3.99289760       1.98126547      -5.94940515       0.36665240      -0.01025933       0.01019731      -0.01497795
Au       5.94940515       1.98126547       3.99289760       0.36665240       0.01497795       0.01019731      -0.01025933
Au       5.94940515      -1.98126547       3.99289760       0.36665240       0.01497795      -0.01019731      -0.01025933
Au       3.99289760      -1.98126547       5.94940515       0.36665240      -0.01025933      -0.01019731       0.01497795
Au       3.99289760       1.98126547       5.94940515       0.36665240      -0.01025933       0.01019731       0.01497795
Au      -5.94940515       1.98126547      -3.99289760       0.36665240      -0.01497795       0.01019731       0.01025933
Au      -5.94940515      -1.98126547      -3.99289760       0.36665240      -0.01497795      -0.01019731       0.01025933
Au      -3.99289760      -1.98126547      -5.94940515       0.36665240       0.01025933      -0.01019731      -0.01497795
Au      -3.99289760       1.98126547      -5.94940515       0.36665240       0.01025933       0.01019731      -0.01497795
Au      -5.94940515       1.98126547       3.99289760       0.36665240      -0.01497795       0.01019731      -0.01025933
Au      -5.94940515      -1.98126547       3.99289760       0.36665240      -0.01497795      -0.01019731      -0.01025933
Au      -3.99289760      -1.98126547       5.94940515       0.36665240       0.01025933      -0.01019731       0.01497795
Au      -3.99289760       1.98126547       5.94940515       0.36665240       0.01025933       0.01019731       0.01497795
Au      -3.99289760      -5.94940515       1.98126547       0.36665240       0.01025933      -0.01497795       0.01019731
Au       3.99289760      -5.94940515       1.98126547       0.36665240      -0.01025933      -0.01497795       0.01019731
Au      -3.99289760       5.94940515       1.98126547       0.36665240       0.01025933       0.01497795       0.01019731
Au       3.99289760       5.94940515       1.98126547       0.36665240      -0.01025933       0.01497795       0.01019731
Au      -3.99289760      -5.94940515      -1.98126547       0.36665240       0.01025933      -0.01497795      -0.01019731
Au       3.99289760      -5.94940515      -1.98126547       0.36665240      -0.01025933      -0.01497795      -0.01019731
Au      -3.99289760       5.94940515      -1.98126547       0.36665240       0.01025933       0.01497795      -0.01019731
Au       3.99289760       5.94940515      -1.98126547       0.36665240      -0.01025933       0.01497795      -0.01019731
Au       5.94940515       3.99289760      -1.98126547       0.36665240       0.01497795      -0.01025933      -0.01019731
Au       5.94940515      -3.99289760      -1.98126547       0.36665240       0.01497795       0.01025933      -0.01019731
Au       1.98126547      -3.99289760      -5.94940515       0.36665240       0.01019731       0.01025933      -0.01497795
Au       1.98126547       3.99289760      -5.94940515       0.36665240       0.01019731      -0.01025933      -0.01497795
Au       5.94940515       3.99289760       1.98126547       0.36665240       0.01497795      -0.01025933       0.01019731
Au       5.94940515      -3.99289760       1.98126547       0.36665240       0.01497795       0.01025933       0.01019731
Au       1.98126547      -3.99289760       5.94940515       0.36665240       0.01019731       0.01025933       0.01497795
Au       1.98126547       3.99289760       5.94940515       0.36665240       0.01019731      -0.01025933       0.01497795
Au      -5.94940515       3.99289760      -1.98126547       0.36665240      -0.01497795      -0.01025933      -0.01019731
Au      -5.94940515      -3.99289760      -1.98126547       0.36665240      -0.01497795       0.01025933      -0.01019731
Au      -1.98126547      -3.99289760      -5.94940515       0.36665240      -0.01019731       0.01025933      -0.01497795
Au      -1.98126547       3.99289760      -5.94940515       0.36665240      -0.01019731      -0.01025933      -0.01497795
Au      -5.94940515       3.99289760       1.98126547       0.36665240      -0.01497795      -0.01025933       0.01019731
Au      -5.94940515      -3.99289760       1.98126547       0.36665240      -0.01497795       0.01025933       0.01019731
Au      -1.98126547      -3.99289760       5.94940515       0.36665240      -0.01019731       0.01025933       0.01497795
Au      -1.98126547       3.99289760       5.94940515       0.36665240      -0.01019731      -0.01025933       0.01497795
Au      -4.01510733      -4.01510733       4.01510733       0.21334905      -0.00645095      -0.00645095       0.00645095
Au       4.01510733      -4.01510733       4.01510733       0.21334905       0.00645095      -0.00645095       0.00645095
Au      -4.01510733       4.01510733       4.01510733       0.21334905      -0.00645095       0.00645095       0.00645095
Au       4.01510733       4.01510733       4.01510733       0.21334905       0.00645095       0.00645095       0.00645095
Au      -4.01510733      -4.01510733      -4.01510733       0.21334905      -0.00645095      -0.00645095      -0.00645095
Au       4.01510733      -4.01510733      -4.01510733       0.21334905       0.00645095      -0.00645095      -0.00645095
Au      -4.01510733       4.01510733      -4.01510733       0.21334905      -0.00645095       0.00645095      -0.00645095
Au       4.01510733       4.01510733      -4.01510733       0.21334905       0.00645095       0.00645095      -0.00645095
Au      -0.00000000      -6.05974267      -2.00857019       0.27611768       0.00000000       0.03863560      -0.00636718
Au       2.00857019      -6.05974267      -0.00000000       0.27611768       0.00636718       0.03863560       0.00000000
Au      -2.00857019      -6.05974267       0.00000000       0.27611768      -0.00636718       0.03863560      -0.00000000
Au      -0.00000000      -6.05974267       2.00857019       0.27611768      -0.00000000       0.03863560       0.00636718
Au       0.00000000       6.05974267      -2.00857019       0.27611768      -0.00000000      -0.03863560      -0.00636718
Au       2.00857019       6.05974267       0.00000000       0.27611768       0.00636718      -0.03863560      -0.00000000
Au      -2.00857019       6.05974267      -0.00000000       0.27611768      -0.00636718      -0.03863560       0.00000000
Au       0.00000000       6.05974267       2.00857019       0.27611768      -0.00000000      -0.03863560       0.00636718
Au       6.05974267       0.00000000       2.00857019       0.27611768      -0.03863560      -0.00000000       0.00636718
Au       6.05974267      -2.00857019       0.00000000       0.27611768      -0.03863560      -0.00636718       0.00000000
Au       6.05974267       2.00857019       0.00000000       0.27611768      -0.03863560       0.00636718       0.00000000
Au       6.05974267      -0.00000000      -2.00857019       0.27611768      -0.03863560       0.00000000      -0.00636718
Au      -2.00857019      -0.00000000      -6.05974267       0.27611768      -0.00636718       0.00000000       0.03863560
Au       0.00000000       2.00857019      -6.05974267       0.27611768      -0.00000000       0.00636718       0.03863560
Au       0.00000000      -2.00857019      -6.05974267       0.27611768       0.00000000      -0.00636718       0.03863560
Au       2.00857019       0.00000000      -6.05974267       0.27611768       0.00636718       0.00000000       0.03863560
Au      -2.00857019       0.00000000       6.05974267       0.27611768      -0.00636718       0.00000000      -0.03863560
Au      -0.00000000       2.00857019       6.05974267       0.27611768      -0.00000000       0.00636718      -0.03863560
Au       0.00000000      -2.00857019       6.05974267       0.27611768       0.00000000      -0.00636718      -0.03863560
Au       2.00857019       0.00000000       6.05974267       0.27611768       0.00636718      -0.00000000      -0.03863560
Au      -6.05974267      -0.00000000       2.00857019       0.27611768       0.03863560       0.00000000       0.00636718
Au      -6.05974267      -2.00857019       0.00000000       0.27611768       0.03863560      -0.00636718      -0.00000000
Au      -6.05974267       2.00857019      -0.00000000       0.27611768       0.03863560       0.00636718       0.00000000
Au      -6.05974267       0.00000000      -2.00857019       0.27611768       0.03863560      -0.00000000      -0.00636718
