909
Properties=species:S:1:pos:R:3:energies:R:1:forces:R:3 energy=227.19165682039596 free_energy=227.19165682039596 pbc="F F F"
Au       0.00000000      -0.00000000      -0.00000000       0.43727797      -0.00000000       0.00000000       0.00000000
Au       2.48057126       2.48057126       2.48057126       0.15788792       0.00796805       0.00796805       0.00796805
Au      -2.48057126       2.48057126       2.48057126       0.15788792      -0.00796805       0.00796805       0.00796805
Au       2.48057126      -2.48057126       2.48057126       0.15788792       0.00796805      -0.00796805       0.00796805
Au       2.48057126       2.48057126      -2.48057126       0.15788792       0.00796805       0.00796805      -0.00796805
Au      -2.48057126      -2.48057126       2.48057126       0.15788792      -0.00796805      -0.00796805       0.00796805
Au      -2.48057126       2.48057126      -2.48057126       0.15788792      -0.00796805       0.00796805      -0.00796805
Au       2.48057126      -2.48057126      -2.48057126       0.15788792       0.00796805      -0.00796805      -0.00796805
Au      -2.48057126      -2.48057126      -2.48057126       0.15788792      -0.00796805      -0.00796805      -0.00796805
Au       0.00000000       4.01364861       1.53307735       0.15788792       0.00000000       0.01289258       0.00492453
Au      -0.00000000      -4.01364861       1.53307735       0.15788792       0.00000000      -0.01289258       0.00492453
Au       0.00000000       4.01364861      -1.53307735       0.15788792       0.00000000       0.01289258      -0.00492453
Au      -0.00000000      -4.01364861      -1.53307735       0.15788792       0.00000000      -0.01289258      -0.00492453
Au       1.53307735      -0.00000000       4.01364861       0.15788792       0.00492453      -0.00000000       0.01289258
Au      -1.53307735       0.00000000       4.01364861       0.15788792      -0.00492453      -0.00000000       0.01289258
Au       1.53307735       0.00000000      -4.01364861       0.15788792       0.00492453      -0.00000000      -0.01289258
Au      -1.53307735       0.00000000      -4.01364861       0.15788792      -0.00492453      -0.00000000      -0.01289258
Au       4.01364861       1.53307735      -0.00000000       0.15788792       0.01289258       0.00492453       0.00000000
Au       4.01364861      -1.53307735       0.00000000       0.15788792       0.01289258      -0.00492453      -0.00000000
Au      -4.01364861       1.53307735       0.00000000       0.15788792      -0.01289258       0.00492453       0.00000000
Au      -4.01364861      -1.53307735       0.00000000       0.15788792      -0.01289258      -0.00492453      -0.00000000
Au       1.41428480       2.28836088      -0.00000000       0.25962558      -0.01203397      -0.01947138       0.00000000
Au       0.00000000       1.41428480       2.28836088       0.25962558      -0.00000000      -0.01203397      -0.01947138
Au      -1.41428480       2.28836088      -0.00000000       0.25962558       0.01203397      -0.01947138       0.00000000
Au       0.00000000       1.41428480      -2.28836088       0.25962558      -0.00000000      -0.01203397       0.01947138
Au       2.28836088      -0.00000000      -1.41428480       0.25962558      -0.01947138       0.00000000       0.01203397
Au       2.28836088      -0.00000000       1.41428480       0.25962558      -0.01947138       0.00000000      -0.01203397
Au      -1.41428480      -2.28836088       0.00000000       0.25962558       0.01203397       0.01947138      -0.00000000
Au       0.00000000      -1.41428480       2.28836088       0.25962558      -0.00000000       0.01203397      -0.01947138
Au       1.41428480      -2.28836088       0.00000000       0.25962558      -0.01203397       0.01947138      -0.00000000
Au       0.00000000      -1.41428480      -2.28836088       0.25962558      -0.00000000       0.01203397       0.01947138
Au      -2.28836088      -0.00000000      -1.41428480       0.25962558       0.01947138       0.00000000       0.01203397
Au      -2.28836088      -0.00000000       1.41428480       0.25962558       0.01947138       0.00000000      -0.01203397
Au       4.93823318       4.93823318       4.93823318       0.15149245       0.00242691       0.00242691       0.00242691
Au      -4.93823318       4.93823318       4.93823318       0.15149245      -0.00242691       0.00242691       0.00242691
Au       4.93823318      -4.93823318       4.93823318       0.15149245       0.00242691      -0.00242691       0.00242691
Au       4.93823318       4.93823318      -4.93823318       0.15149245       0.00242691       0.00242691      -0.00242691
Au      -4.93823318      -4.93823318       4.93823318       0.15149245      -0.00242691      -0.00242691       0.00242691
Au      -4.93823318       4.93823318      -4.93823318       0.15149245      -0.00242691       0.00242691      -0.00242691
Au       4.93823318      -4.93823318      -4.93823318       0.15149245       0.00242691      -0.00242691      -0.00242691
Au      -4.93823318      -4.93823318      -4.93823318       0.15149245      -0.00242691      -0.00242691      -0.00242691
Au      -0.00000000       7.99022914       3.05199595       0.15149245      -0.00000000       0.00392682       0.00149991
Au       0.00000000      -7.99022914       3.05199595       0.15149245       0.00000000      -0.00392682       0.00149991
Au      -0.00000000       7.99022914      -3.05199595       0.15149245      -0.00000000       0.00392682      -0.00149991
Au       0.00000000      -7.99022914      -3.05199595       0.15149245       0.00000000      -0.00392682      -0.00149991
Au       3.05199595       0.00000000       7.99022914       0.15149245       0.00149991       0.00000000       0.00392682
Au      -3.05199595       0.00000000       7.99022914       0.15149245      -0.00149991      -0.00000000       0.00392682
Au       3.05199595      -0.00000000      -7.99022914       0.15149245       0.00149991      -0.00000000      -0.00392682
Au      -3.05199595       0.00000000      -7.99022914       0.15149245      -0.00149991      -0.00000000      -0.00392682
Au       7.99022914       3.05199595      -0.00000000       0.15149245       0.00392682       0.00149991      -0.00000000
Au       7.99022914      -3.05199595      -0.00000000       0.15149245       0.00392682      -0.00149991       0.00000000
Au      -7.99022914       3.05199595      -0.00000000       0.15149245      -0.00392682       0.00149991      -0.00000000
Au      -7.99022914      -3.05199595      -0.00000000       0.15149245      -0.00392682      -0.00149991      -0.00000000
Au       2.52036145       6.59839194       4.07803049       0.11054858       0.00741183       0.01940441       0.01199259
Au      -2.52036145       6.59839194       4.07803049       0.11054858      -0.00741183       0.01940441       0.01199259
Au       2.52036145      -6.59839194       4.07803049       0.11054858       0.00741183      -0.01940441       0.01199259
Au      -2.52036145      -6.59839194       4.07803049       0.11054858      -0.00741183      -0.01940441       0.01199259
Au       2.52036145       6.59839194      -4.07803049       0.11054858       0.00741183       0.01940441      -0.01199259
Au      -2.52036145       6.59839194      -4.07803049       0.11054858      -0.00741183       0.01940441      -0.01199259
Au      -0.00000000       8.15606098       0.00000000       0.11054858      -0.00000000       0.02398517      -0.00000000
Au       2.52036145      -6.59839194      -4.07803049       0.11054858       0.00741183      -0.01940441      -0.01199259
Au      -2.52036145      -6.59839194      -4.07803049       0.11054858      -0.00741183      -0.01940441      -0.01199259
Au       0.00000000      -8.15606098       0.00000000       0.11054858       0.00000000      -0.02398517       0.00000000
Au       4.07803049       2.52036145       6.59839194       0.11054858       0.01199259       0.00741183       0.01940441
Au       4.07803049      -2.52036145       6.59839194       0.11054858       0.01199259      -0.00741183       0.01940441
Au      -4.07803049       2.52036145       6.59839194       0.11054858      -0.01199259       0.00741183       0.01940441
Au      -4.07803049      -2.52036145       6.59839194       0.11054858      -0.01199259      -0.00741183       0.01940441
Au      -0.00000000       0.00000000       8.15606098       0.11054858      -0.00000000       0.00000000       0.02398517
Au       4.07803049       2.52036145      -6.59839194       0.11054858       0.01199259       0.00741183      -0.01940441
Au       4.07803049      -2.52036145      -6.59839194       0.11054858       0.01199259      -0.00741183      -0.01940441
Au      -4.07803049       2.52036145      -6.59839194       0.11054858      -0.01199259       0.00741183      -0.01940441
Au      -4.07803049      -2.52036145      -6.59839194       0.11054858      -0.01199259      -0.00741183      -0.01940441
Au       0.00000000      -0.00000000      -8.15606098       0.11054858      -0.00000000      -0.00000000      -0.02398517
Au       6.59839194       4.07803049       2.52036145       0.11054858       0.01940441       0.01199259       0.00741183
Au       6.59839194       4.07803049      -2.52036145       0.11054858       0.01940441       0.01199259      -0.00741183
Au       6.59839194      -4.07803049       2.52036145       0.11054858       0.01940441      -0.01199259       0.00741183
Au       6.59839194      -4.07803049      -2.52036145       0.11054858       0.01940441      -0.01199259      -0.00741183
Au       8.15606098       0.00000000      -0.00000000       0.11054858       0.02398517       0.00000000       0.00000000
Au      -6.59839194       4.07803049       2.52036145       0.11054858      -0.01940441       0.01199259       0.00741183
Au      -6.59839194       4.07803049      -2.52036145       0.11054858      -0.01940441       0.01199259      -0.00741183
Au      -6.59839194      -4.07803049       2.52036145       0.11054858      -0.01940441      -0.01199259       0.00741183
Au      -6.59839194      -4.07803049      -2.52036145       0.11054858      -0.01940441      -0.01199259      -0.00741183
Au      -8.15606098      -0.00000000      -0.00000000       0.11054858      -0.02398517       0.00000000      -0.00000000
Au       2.78797506       4.51103841      -0.00000000       0.27706620      -0.01109863      -0.01795796      -0.00000000
Au       3.86928637       4.75883850       2.42996079       0.19605534      -0.00184670      -0.01243187       0.01528045
Au       1.43932558       6.26063686       1.50179836       0.19605534      -0.01712715      -0.00298803       0.00944384
Au       1.43932558       6.26063686      -1.50179836       0.19605534      -0.01712715      -0.00298803      -0.00944384
Au       3.86928637       4.75883850      -2.42996079       0.19605534      -0.00184670      -0.01243187      -0.01528045
Au       5.37108473       3.83067607      -0.00000000       0.19605534       0.00759713      -0.01826848       0.00000000
Au      -0.00000000       2.78797506       4.51103841       0.27706620      -0.00000000      -0.01109863      -0.01795796
Au       2.42996079       3.86928637       4.75883850       0.19605534       0.01528045      -0.00184670      -0.01243187
Au       1.50179836       1.43932558       6.26063686       0.19605534       0.00944384      -0.01712715      -0.00298803
Au      -1.50179836       1.43932558       6.26063686       0.19605534      -0.00944384      -0.01712715      -0.00298803
Au      -2.42996079       3.86928637       4.75883850       0.19605534      -0.01528045      -0.00184670      -0.01243187
Au      -0.00000000       5.37108473       3.83067607       0.19605534       0.00000000       0.00759713      -0.01826848
Au      -2.78797506       4.51103841       0.00000000       0.27706620       0.01109863      -0.01795796      -0.00000000
Au      -1.43932558       6.26063686       1.50179836       0.19605534       0.01712715      -0.00298803       0.00944384
Au      -3.86928637       4.75883850       2.42996079       0.19605534       0.00184670      -0.01243187       0.01528045
Au      -5.37108473       3.83067607      -0.00000000       0.19605534      -0.00759713      -0.01826848       0.00000000
Au      -3.86928637       4.75883850      -2.42996079       0.19605534       0.00184670      -0.01243187      -0.01528045
Au      -1.43932558       6.26063686      -1.50179836       0.19605534       0.01712715      -0.00298803      -0.00944384
Au      -0.00000000       2.78797506      -4.51103841       0.27706620      -0.00000000      -0.01109863       0.01795796
Au      -0.00000000       5.37108473      -3.83067607       0.19605534       0.00000000       0.00759713       0.01826848
Au      -2.42996079       3.86928637      -4.75883850       0.19605534      -0.01528045      -0.00184670       0.01243187
Au      -1.50179836       1.43932558      -6.26063686       0.19605534      -0.00944384      -0.01712715       0.00298803
Au       1.50179836       1.43932558      -6.26063686       0.19605534       0.00944384      -0.01712715       0.00298803
Au       2.42996079       3.86928637      -4.75883850       0.19605534       0.01528045      -0.00184670       0.01243187
Au       4.51103841       0.00000000      -2.78797506       0.27706620      -0.01795796       0.00000000       0.01109863
Au       4.75883850       2.42996079      -3.86928637       0.19605534      -0.01243187       0.01528045       0.00184670
Au       3.83067607       0.00000000      -5.37108473       0.19605534      -0.01826848      -0.00000000      -0.00759713
Au       4.75883850      -2.42996079      -3.86928637       0.19605534      -0.01243187      -0.01528045       0.00184670
Au       6.26063686      -1.50179836      -1.43932558       0.19605534      -0.00298803      -0.00944384       0.01712715
Au       6.26063686       1.50179836      -1.43932558       0.19605534      -0.00298803       0.00944384       0.01712715
Au       4.51103841       0.00000000       2.78797506       0.27706620      -0.01795796      -0.00000000      -0.01109863
Au       6.26063686       1.50179836       1.43932558       0.19605534      -0.00298803       0.00944384      -0.01712715
Au       6.26063686      -1.50179836       1.43932558       0.19605534      -0.00298803      -0.00944384      -0.01712715
Au       4.75883850      -2.42996079       3.86928637       0.19605534      -0.01243187      -0.01528045      -0.00184670
Au       3.83067607       0.00000000       5.37108473       0.19605534      -0.01826848      -0.00000000       0.00759713
Au       4.75883850       2.42996079       3.86928637       0.19605534      -0.01243187       0.01528045      -0.00184670
Au      -2.78797506      -4.51103841       0.00000000       0.27706620       0.01109863       0.01795796       0.00000000
Au      -3.86928637      -4.75883850       2.42996079       0.19605534       0.00184670       0.01243187       0.01528045
Au      -1.43932558      -6.26063686       1.50179836       0.19605534       0.01712715       0.00298803       0.00944384
Au      -1.43932558      -6.26063686      -1.50179836       0.19605534       0.01712715       0.00298803      -0.00944384
Au      -3.86928637      -4.75883850      -2.42996079       0.19605534       0.00184670       0.01243187      -0.01528045
Au      -5.37108473      -3.83067607       0.00000000       0.19605534      -0.00759713       0.01826848      -0.00000000
Au      -0.00000000      -2.78797506       4.51103841       0.27706620       0.00000000       0.01109863      -0.01795796
Au      -2.42996079      -3.86928637       4.75883850       0.19605534      -0.01528045       0.00184670      -0.01243187
Au      -1.50179836      -1.43932558       6.26063686       0.19605534      -0.00944384       0.01712715      -0.00298803
Au       1.50179836      -1.43932558       6.26063686       0.19605534       0.00944384       0.01712715      -0.00298803
Au       2.42996079      -3.86928637       4.75883850       0.19605534       0.01528045       0.00184670      -0.01243187
Au       0.00000000      -5.37108473       3.83067607       0.19605534       0.00000000      -0.00759713      -0.01826848
Au       2.78797506      -4.51103841      -0.00000000       0.27706620      -0.01109863       0.01795796       0.00000000
Au       1.43932558      -6.26063686       1.50179836       0.19605534      -0.01712715       0.00298803       0.00944384
Au       3.86928637      -4.75883850       2.42996079       0.19605534      -0.00184670       0.01243187       0.01528045
Au       5.37108473      -3.83067607       0.00000000       0.19605534       0.00759713       0.01826848       0.00000000
Au       3.86928637      -4.75883850      -2.42996079       0.19605534      -0.00184670       0.01243187      -0.01528045
Au       1.43932558      -6.26063686      -1.50179836       0.19605534      -0.01712715       0.00298803      -0.00944384
Au      -0.00000000      -2.78797506      -4.51103841       0.27706620       0.00000000       0.01109863       0.01795796
Au       0.00000000      -5.37108473      -3.83067607       0.19605534      -0.00000000      -0.00759713       0.01826848
Au       2.42996079      -3.86928637      -4.75883850       0.19605534       0.01528045       0.00184670       0.01243187
Au       1.50179836      -1.43932558      -6.26063686       0.19605534       0.00944384       0.01712715       0.00298803
Au      -1.50179836      -1.43932558      -6.26063686       0.19605534      -0.00944384       0.01712715       0.00298803
Au      -2.42996079      -3.86928637      -4.75883850       0.19605534      -0.01528045       0.00184670       0.01243187
Au      -4.51103841      -0.00000000      -2.78797506       0.27706620       0.01795796       0.00000000       0.01109863
Au      -4.75883850      -2.42996079      -3.86928637       0.19605534       0.01243187      -0.01528045       0.00184670
Au      -3.83067607      -0.00000000      -5.37108473       0.19605534       0.01826848      -0.00000000      -0.00759713
Au      -4.75883850       2.42996079      -3.86928637       0.19605534       0.01243187       0.01528045       0.00184670
Au      -6.26063686       1.50179836      -1.43932558       0.19605534       0.00298803       0.00944384       0.01712715
Au      -6.26063686      -1.50179836      -1.43932558       0.19605534       0.00298803      -0.00944384       0.01712715
Au      -4.51103841      -0.00000000       2.78797506       0.27706620       0.01795796       0.00000000      -0.01109863
Au      -6.26063686      -1.50179836       1.43932558       0.19605534       0.00298803      -0.00944384      -0.01712715
Au      -6.26063686       1.50179836       1.43932558       0.19605534       0.00298803       0.00944384      -0.01712715
Au      -4.75883850       2.42996079       3.86928637       0.19605534       0.01243187       0.01528045      -0.00184670
Au      -3.83067607      -0.00000000       5.37108473       0.19605534       0.01826848      -0.00000000       0.00759713
Au      -4.75883850      -2.42996079       3.86928637       0.19605534       0.01243187      -0.01528045      -0.00184670
Au       7.32497522       7.32497522       7.32497522       0.12243365      -0.00444930      -0.00444930      -0.00444930
Au      -7.32497522       7.32497522       7.32497522       0.12243365       0.00444930      -0.00444930      -0.00444930
Au       7.32497522      -7.32497522       7.32497522       0.12243365      -0.00444930       0.00444930      -0.00444930
Au       7.32497522       7.32497522      -7.32497522       0.12243365      -0.00444930      -0.00444930       0.00444930
Au      -7.32497522      -7.32497522       7.32497522       0.12243365       0.00444930       0.00444930      -0.00444930
Au      -7.32497522       7.32497522      -7.32497522       0.12243365       0.00444930      -0.00444930       0.00444930
Au       7.32497522      -7.32497522      -7.32497522       0.12243365      -0.00444930       0.00444930       0.00444930
Au      -7.32497522      -7.32497522      -7.32497522       0.12243365       0.00444930       0.00444930       0.00444930
Au       0.00000000      11.85205887       4.52708365       0.12243365       0.00000000      -0.00719912      -0.00274982
Au       0.00000000     -11.85205887       4.52708365       0.12243365      -0.00000000       0.00719912      -0.00274982
Au       0.00000000      11.85205887      -4.52708365       0.12243365      -0.00000000      -0.00719912       0.00274982
Au       0.00000000     -11.85205887      -4.52708365       0.12243365       0.00000000       0.00719912       0.00274982
Au       4.52708365       0.00000000      11.85205887       0.12243365      -0.00274982       0.00000000      -0.00719912
Au      -4.52708365      -0.00000000      11.85205887       0.12243365       0.00274982       0.00000000      -0.00719912
Au       4.52708365       0.00000000     -11.85205887       0.12243365      -0.00274982      -0.00000000       0.00719912
Au      -4.52708365       0.00000000     -11.85205887       0.12243365       0.00274982       0.00000000       0.00719912
Au      11.85205887       4.52708365       0.00000000       0.12243365      -0.00719912      -0.00274982      -0.00000000
Au      11.85205887      -4.52708365       0.00000000       0.12243365      -0.00719912       0.00274982       0.00000000
Au     -11.85205887       4.52708365       0.00000000       0.12243365       0.00719912      -0.00274982      -0.00000000
Au     -11.85205887      -4.52708365       0.00000000       0.12243365       0.00719912       0.00274982      -0.00000000
Au       2.48066865      10.60574180       5.58417043       0.12452586      -0.00069864       0.00478732       0.00139681
Au      -2.48066865      10.60574180       5.58417043       0.12452586       0.00069864       0.00478732       0.00139681
Au       2.48066865     -10.60574180       5.58417043       0.12452586      -0.00069864      -0.00478732       0.00139681
Au      -2.48066865     -10.60574180       5.58417043       0.12452586       0.00069864      -0.00478732       0.00139681
Au       2.48066865      10.60574180      -5.58417043       0.12452586      -0.00069864       0.00478732      -0.00139681
Au      -2.48066865      10.60574180      -5.58417043       0.12452586       0.00069864       0.00478732      -0.00139681
Au       0.00000000      12.13887934      -1.57036424       0.12452586      -0.00000000       0.00435553      -0.00252724
Au       2.48066865     -10.60574180      -5.58417043       0.12452586      -0.00069864      -0.00478732      -0.00139681
Au      -2.48066865     -10.60574180      -5.58417043       0.12452586       0.00069864      -0.00478732      -0.00139681
Au       0.00000000     -12.13887934      -1.57036424       0.12452586       0.00000000      -0.00435553      -0.00252724
Au       5.58417043       2.48066865      10.60574180       0.12452586       0.00139681      -0.00069864       0.00478732
Au       5.58417043      -2.48066865      10.60574180       0.12452586       0.00139681       0.00069864       0.00478732
Au      -5.58417043       2.48066865      10.60574180       0.12452586      -0.00139681      -0.00069864       0.00478732
Au      -5.58417043      -2.48066865      10.60574180       0.12452586      -0.00139681       0.00069864       0.00478732
Au      -1.57036424       0.00000000      12.13887934       0.12452586      -0.00252724      -0.00000000       0.00435553
Au       5.58417043       2.48066865     -10.60574180       0.12452586       0.00139681      -0.00069864      -0.00478732
Au       5.58417043      -2.48066865     -10.60574180       0.12452586       0.00139681       0.00069864      -0.00478732
Au      -5.58417043       2.48066865     -10.60574180       0.12452586      -0.00139681      -0.00069864      -0.00478732
Au      -5.58417043      -2.48066865     -10.60574180       0.12452586      -0.00139681       0.00069864      -0.00478732
Au      -1.57036424       0.00000000     -12.13887934       0.12452586      -0.00252724       0.00000000      -0.00435553
Au      10.60574180       5.58417043       2.48066865       0.12452586       0.00478732       0.00139681      -0.00069864
Au      10.60574180       5.58417043      -2.48066865       0.12452586       0.00478732       0.00139681       0.00069864
Au      10.60574180      -5.58417043       2.48066865       0.12452586       0.00478732      -0.00139681      -0.00069864
Au      10.60574180      -5.58417043      -2.48066865       0.12452586       0.00478732      -0.00139681       0.00069864
Au      12.13887934      -1.57036424       0.00000000       0.12452586       0.00435553      -0.00252724       0.00000000
Au     -10.60574180       5.58417043       2.48066865       0.12452586      -0.00478732       0.00139681      -0.00069864
Au     -10.60574180       5.58417043      -2.48066865       0.12452586      -0.00478732       0.00139681       0.00069864
Au     -10.60574180      -5.58417043       2.48066865       0.12452586      -0.00478732      -0.00139681      -0.00069864
Au     -10.60574180      -5.58417043      -2.48066865       0.12452586      -0.00478732      -0.00139681       0.00069864
Au     -12.13887934      -1.57036424       0.00000000       0.12452586      -0.00435553      -0.00252724       0.00000000
Au       5.02157137       9.03537755       6.55470891       0.12452586       0.00339051       0.00226008       0.00295873
Au      -5.02157137       9.03537755       6.55470891       0.12452586      -0.00339051       0.00226008       0.00295873
Au       5.02157137      -9.03537755       6.55470891       0.12452586       0.00339051      -0.00226008       0.00295873
Au      -5.02157137      -9.03537755       6.55470891       0.12452586      -0.00339051      -0.00226008       0.00295873
Au       5.02157137       9.03537755      -6.55470891       0.12452586       0.00339051       0.00226008      -0.00295873
Au      -5.02157137       9.03537755      -6.55470891       0.12452586      -0.00339051       0.00226008      -0.00295873
Au      -0.00000000      12.13887934       1.57036424       0.12452586      -0.00000000       0.00435553       0.00252724
Au       5.02157137      -9.03537755      -6.55470891       0.12452586       0.00339051      -0.00226008      -0.00295873
Au      -5.02157137      -9.03537755      -6.55470891       0.12452586      -0.00339051      -0.00226008      -0.00295873
Au       0.00000000     -12.13887934       1.57036424       0.12452586       0.00000000      -0.00435553       0.00252724
Au       6.55470891       5.02157137       9.03537755       0.12452586       0.00295873       0.00339051       0.00226008
Au       6.55470891      -5.02157137       9.03537755       0.12452586       0.00295873      -0.00339051       0.00226008
Au      -6.55470891       5.02157137       9.03537755       0.12452586      -0.00295873       0.00339051       0.00226008
Au      -6.55470891      -5.02157137       9.03537755       0.12452586      -0.00295873      -0.00339051       0.00226008
Au       1.57036424       0.00000000      12.13887934       0.12452586       0.00252724      -0.00000000       0.00435553
Au       6.55470891       5.02157137      -9.03537755       0.12452586       0.00295873       0.00339051      -0.00226008
Au       6.55470891      -5.02157137      -9.03537755       0.12452586       0.00295873      -0.00339051      -0.00226008
Au      -6.55470891       5.02157137      -9.03537755       0.12452586      -0.00295873       0.00339051      -0.00226008
Au      -6.55470891      -5.02157137      -9.03537755       0.12452586      -0.00295873      -0.00339051      -0.00226008
Au       1.57036424       0.00000000     -12.13887934       0.12452586       0.00252724      -0.00000000      -0.00435553
Au       9.03537755       6.55470891       5.02157137       0.12452586       0.00226008       0.00295873       0.00339051
Au       9.03537755       6.55470891      -5.02157137       0.12452586       0.00226008       0.00295873      -0.00339051
Au       9.03537755      -6.55470891       5.02157137       0.12452586       0.00226008      -0.00295873       0.00339051
Au       9.03537755      -6.55470891      -5.02157137       0.12452586       0.00226008      -0.00295873      -0.00339051
Au      12.13887934       1.57036424       0.00000000       0.12452586       0.00435553       0.00252724       0.00000000
Au      -9.03537755       6.55470891       5.02157137       0.12452586      -0.00226008       0.00295873       0.00339051
Au      -9.03537755       6.55470891      -5.02157137       0.12452586      -0.00226008       0.00295873      -0.00339051
Au      -9.03537755      -6.55470891       5.02157137       0.12452586      -0.00226008      -0.00295873       0.00339051
Au      -9.03537755      -6.55470891      -5.02157137       0.12452586      -0.00226008      -0.00295873      -0.00339051
Au     -12.13887934       1.57036424       0.00000000       0.12452586      -0.00435553       0.00252724       0.00000000
Au       5.29628522       8.56956950       0.00000000       0.14480594       0.00367684       0.00594926      -0.00000000
Au       5.20756335       7.00737811       2.29540191       0.17137901      -0.00111438      -0.00186782       0.00010470
Au       6.31480159       7.27223462       4.76564241       0.12722719      -0.00304126      -0.00150155      -0.00553255
Au       3.98405322       8.89380293       3.96008868       0.12719899       0.00288329       0.00758290       0.00472083
Au       2.91216144       8.42601450       1.41863640       0.17137901      -0.00121909      -0.00180311       0.00006471
Au       1.54915918      10.21756361       2.94532899       0.12722719       0.00249130      -0.00492086      -0.00341931
Au       1.53658382      10.40642221       0.00000000       0.12719899      -0.00003434       0.00938609       0.00000000
Au       2.91216144       8.42601450      -1.41863640       0.17137901      -0.00121909      -0.00180311      -0.00006471
Au       1.54915918      10.21756361      -2.94532899       0.12722719       0.00249130      -0.00492086       0.00341931