1661
Properties=species:S:1:pos:R:3:energies:R:1:forces:R:3 energy=372.49735876442855 free_energy=372.49735876442855 pbc="F F F"
Au       0.00000000      -0.00000000      -0.00000000       0.61891373      -0.00000001       0.00000001       0.00000000
Au       2.45281520       2.45281520       2.45281520       0.20487807       0.00816463       0.00816463       0.00816463
Au      -2.45281520       2.45281520       2.45281520       0.20487807      -0.00816463       0.00816463       0.00816463
Au       2.45281520      -2.45281520       2.45281520       0.20487807       0.00816463      -0.00816463       0.00816463
Au       2.45281520       2.45281520      -2.45281520       0.20487807       0.00816463       0.00816463      -0.00816463
Au      -2.45281520      -2.45281520       2.45281520       0.20487807      -0.00816463      -0.00816463       0.00816463
Au      -2.45281520       2.45281520      -2.45281520       0.20487807      -0.00816463       0.00816463      -0.00816463
Au       2.45281520      -2.45281520      -2.45281520       0.20487807       0.00816463      -0.00816463      -0.00816463
Au      -2.45281520      -2.45281520      -2.45281520       0.20487807      -0.00816463      -0.00816463      -0.00816463
Au      -0.00000000       3.96873836       1.51592316       0.20487807       0.00000000       0.01321065       0.00504602
Au      -0.00000000      -3.96873836       1.51592316       0.20487807       0.00000000      -0.01321065       0.00504602
Au      -0.00000000       3.96873836      -1.51592316       0.20487807       0.00000000       0.01321065      -0.00504602
Au      -0.00000000      -3.96873836      -1.51592316       0.20487807       0.00000000      -0.01321065      -0.00504602
Au       1.51592316       0.00000000       3.96873836       0.20487807       0.00504602      -0.00000000       0.01321065
Au      -1.51592316       0.00000000       3.96873836       0.20487807      -0.00504602      -0.00000000       0.01321065
Au       1.51592316       0.00000000      -3.96873836       0.20487807       0.00504602      -0.00000000      -0.01321065
Au      -1.51592316       0.00000000      -3.96873836       0.20487807      -0.00504602      -0.00000000      -0.01321065
Au       3.96873836       1.51592316       0.00000000       0.20487807       0.01321065       0.00504602      -0.00000000
Au       3.96873836      -1.51592316       0.00000000       0.20487807       0.01321065      -0.00504602      -0.00000000
Au      -3.96873836       1.51592316       0.00000000       0.20487807      -0.01321065       0.00504602      -0.00000000
Au      -3.96873836      -1.51592316       0.00000000       0.20487807      -0.01321065      -0.00504602      -0.00000000
Au       1.39828292       2.26246929      -0.00000000       0.37993475       0.00902481       0.01460245       0.00000000
Au       0.00000000       1.39828292       2.26246929       0.37993475      -0.00000000       0.00902481       0.01460245
Au      -1.39828292       2.26246929      -0.00000000       0.37993475      -0.00902481       0.01460245       0.00000000
Au       0.00000000       1.39828292      -2.26246929       0.37993475      -0.00000000       0.00902481      -0.01460245
Au       2.26246929      -0.00000000      -1.39828292       0.37993475       0.01460246       0.00000000      -0.00902482
Au       2.26246929      -0.00000000       1.39828292       0.37993475       0.01460246       0.00000000       0.00902482
Au      -1.39828292      -2.26246929      -0.00000000       0.37993475      -0.00902481      -0.01460245       0.00000000
Au       0.00000000      -1.39828292       2.26246929       0.37993475      -0.00000000      -0.00902481       0.01460245
Au       1.39828292      -2.26246929      -0.00000000       0.37993475       0.00902481      -0.01460246       0.00000000
Au       0.00000000      -1.39828292      -2.26246929       0.37993475      -0.00000000      -0.00902481      -0.01460246
Au      -2.26246929      -0.00000000      -1.39828292       0.37993475      -0.01460245       0.00000000      -0.00902481
Au      -2.26246929      -0.00000000       1.39828292       0.37993475      -0.01460245       0.00000000       0.00902481
Au       4.89588209       4.89588209       4.89588209       0.15491086       0.00815023       0.00815023       0.00815023
Au      -4.89588209       4.89588209       4.89588209       0.15491086      -0.00815023       0.00815023       0.00815023
Au       4.89588209      -4.89588209       4.89588209       0.15491086       0.00815023      -0.00815023       0.00815023
Au       4.89588209       4.89588209      -4.89588209       0.15491086       0.00815023       0.00815023      -0.00815023
Au      -4.89588209      -4.89588209       4.89588209       0.15491086      -0.00815023      -0.00815023       0.00815023
Au      -4.89588209       4.89588209      -4.89588209       0.15491086      -0.00815023       0.00815023      -0.00815023
Au       4.89588209      -4.89588209      -4.89588209       0.15491086       0.00815023      -0.00815023      -0.00815023
Au      -4.89588209      -4.89588209      -4.89588209       0.15491086      -0.00815023      -0.00815023      -0.00815023
Au       0.00000000       7.92170362       3.02582153       0.15491086      -0.00000000       0.01318735       0.00503712
Au       0.00000000      -7.92170362       3.02582153       0.15491086      -0.00000000      -0.01318735       0.00503712
Au      -0.00000000       7.92170362      -3.02582153       0.15491086      -0.00000000       0.01318735      -0.00503712
Au       0.00000000      -7.92170362      -3.02582153       0.15491086      -0.00000000      -0.01318735      -0.00503712
Au       3.02582153      -0.00000000       7.92170362       0.15491086       0.00503712       0.00000000       0.01318735
Au      -3.02582153      -0.00000000       7.92170362       0.15491086      -0.00503712       0.00000000       0.01318735
Au       3.02582153      -0.00000000      -7.92170362       0.15491086       0.00503712       0.00000000      -0.01318735
Au      -3.02582153      -0.00000000      -7.92170362       0.15491086      -0.00503712       0.00000000      -0.01318735
Au       7.92170362       3.02582153       0.00000000       0.15491086       0.01318735       0.00503712       0.00000000
Au       7.92170362      -3.02582153       0.00000000       0.15491086       0.01318735      -0.00503712       0.00000000
Au      -7.92170362       3.02582153      -0.00000000       0.15491086      -0.01318735       0.00503712       0.00000000
Au      -7.92170362      -3.02582153      -0.00000000       0.15491086      -0.01318735      -0.00503712       0.00000000
Au       2.52352555       6.60667567       4.08315011       0.08040498      -0.00355355      -0.00930330      -0.00574976
Au      -2.52352555       6.60667567       4.08315011       0.08040498       0.00355355      -0.00930330      -0.00574976
Au       2.52352555      -6.60667567       4.08315011       0.08040498      -0.00355355       0.00930330      -0.00574976
Au      -2.52352555      -6.60667567       4.08315011       0.08040498       0.00355355       0.00930330      -0.00574976
Au       2.52352555       6.60667567      -4.08315011       0.08040498      -0.00355355      -0.00930330       0.00574976
Au      -2.52352555       6.60667567      -4.08315011       0.08040498       0.00355355      -0.00930330       0.00574976
Au      -0.00000000       8.16630023      -0.00000000       0.08040498      -0.00000000      -0.01149952       0.00000000
Au       2.52352555      -6.60667567      -4.08315011       0.08040498      -0.00355355       0.00930330       0.00574976
Au      -2.52352555      -6.60667567      -4.08315011       0.08040498       0.00355355       0.00930330       0.00574976
Au       0.00000000      -8.16630023       0.00000000       0.08040498      -0.00000000       0.01149952       0.00000000
Au       4.08315011       2.52352555       6.60667567       0.08040498      -0.00574976      -0.00355355      -0.00930330
Au       4.08315011      -2.52352555       6.60667567       0.08040498      -0.00574976       0.00355355      -0.00930330
Au      -4.08315011       2.52352555       6.60667567       0.08040498       0.00574976      -0.00355355      -0.00930330
Au      -4.08315011      -2.52352555       6.60667567       0.08040498       0.00574976       0.00355355      -0.00930330
Au      -0.00000000      -0.00000000       8.16630023       0.08040498      -0.00000000       0.00000000      -0.01149952
Au       4.08315011       2.52352555      -6.60667567       0.08040498      -0.00574976      -0.00355355       0.00930330
Au       4.08315011      -2.52352555      -6.60667567       0.08040498      -0.00574976       0.00355355       0.00930330
Au      -4.08315011       2.52352555      -6.60667567       0.08040498       0.00574976      -0.00355355       0.00930330
Au      -4.08315011      -2.52352555      -6.60667567       0.08040498       0.00574976       0.00355355       0.00930330
Au       0.00000000      -0.00000000      -8.16630023       0.08040498      -0.00000000       0.00000000       0.01149952
Au       6.60667567       4.08315011       2.52352555       0.08040498      -0.00930330      -0.00574976      -0.00355355
Au       6.60667567       4.08315011      -2.52352555       0.08040498      -0.00930330      -0.00574976       0.00355355
Au       6.60667567      -4.08315011       2.52352555       0.08040498      -0.00930330       0.00574976      -0.00355355
Au       6.60667567      -4.08315011      -2.52352555       0.08040498      -0.00930330       0.00574976       0.00355355
Au       8.16630023       0.00000000       0.00000000       0.08040498      -0.01149952       0.00000000       0.00000000
Au      -6.60667567       4.08315011       2.52352555       0.08040498       0.00930330      -0.00574976      -0.00355355
Au      -6.60667567       4.08315011      -2.52352555       0.08040498       0.00930330      -0.00574976       0.00355355
Au      -6.60667567      -4.08315011       2.52352555       0.08040498       0.00930330       0.00574976      -0.00355355
Au      -6.60667567      -4.08315011      -2.52352555       0.08040498       0.00930330       0.00574976       0.00355355
Au      -8.16630023      -0.00000000      -0.00000000       0.08040498       0.01149952       0.00000000       0.00000000
Au       2.75953995       4.46502943      -0.00000000       0.32101013       0.01086986       0.01758781       0.00000000
Au       3.82700386       4.70381379       2.40829560       0.23642221       0.01132171       0.01202718       0.01018023
Au       1.41870827       6.19222232       1.48840853       0.23642221       0.00114148       0.01831890       0.00629173
Au       1.41870827       6.19222232      -1.48840853       0.23642221       0.00114148       0.01831890      -0.00629173
Au       3.82700386       4.70381379      -2.40829560       0.23642221       0.01132171       0.01202718      -0.01018023
Au       5.31541239       3.78392673      -0.00000000       0.23642221       0.01761343       0.00813867      -0.00000000
Au       0.00000000       2.75953995       4.46502943       0.32101013      -0.00000000       0.01086986       0.01758781
Au       2.40829560       3.82700386       4.70381379       0.23642221       0.01018023       0.01132171       0.01202718
Au       1.48840853       1.41870827       6.19222232       0.23642221       0.00629173       0.00114148       0.01831890
Au      -1.48840853       1.41870827       6.19222232       0.23642221      -0.00629173       0.00114148       0.01831890
Au      -2.40829560       3.82700386       4.70381379       0.23642221      -0.01018023       0.01132171       0.01202718
Au      -0.00000000       5.31541239       3.78392673       0.23642221       0.00000000       0.01761343       0.00813867
Au      -2.75953995       4.46502943      -0.00000000       0.32101013      -0.01086987       0.01758781       0.00000000
Au      -1.41870827       6.19222232       1.48840853       0.23642221      -0.00114148       0.01831890       0.00629173
Au      -3.82700386       4.70381379       2.40829560       0.23642221      -0.01132171       0.01202718       0.01018023
Au      -5.31541239       3.78392673       0.00000000       0.23642221      -0.01761343       0.00813867      -0.00000000
Au      -3.82700386       4.70381379      -2.40829560       0.23642221      -0.01132171       0.01202718      -0.01018023
Au      -1.41870827       6.19222232      -1.48840853       0.23642221      -0.00114148       0.01831890      -0.00629173
Au       0.00000000       2.75953995      -4.46502943       0.32101013      -0.00000000       0.01086986      -0.01758781
Au      -0.00000000       5.31541239      -3.78392673       0.23642221       0.00000000       0.01761343      -0.00813867
Au      -2.40829560       3.82700386      -4.70381379       0.23642221      -0.01018023       0.01132171      -0.01202718
Au      -1.48840853       1.41870827      -6.19222232       0.23642221      -0.00629173       0.00114148      -0.01831890
Au       1.48840853       1.41870827      -6.19222232       0.23642221       0.00629173       0.00114148      -0.01831890
Au       2.40829560       3.82700386      -4.70381379       0.23642221       0.01018023       0.01132171      -0.01202718
Au       4.46502943      -0.00000000      -2.75953995       0.32101013       0.01758781       0.00000000      -0.01086986
Au       4.70381379       2.40829560      -3.82700386       0.23642221       0.01202718       0.01018023      -0.01132171
Au       3.78392673       0.00000000      -5.31541239       0.23642221       0.00813867      -0.00000000      -0.01761343
Au       4.70381379      -2.40829560      -3.82700386       0.23642221       0.01202718      -0.01018023      -0.01132171
Au       6.19222232      -1.48840853      -1.41870827       0.23642221       0.01831890      -0.00629173      -0.00114148
Au       6.19222232       1.48840853      -1.41870827       0.23642221       0.01831890       0.00629173      -0.00114148
Au       4.46502943      -0.00000000       2.75953995       0.32101013       0.01758781       0.00000000       0.01086986
Au       6.19222232       1.48840853       1.41870827       0.23642221       0.01831890       0.00629173       0.00114148
Au       6.19222232      -1.48840853       1.41870827       0.23642221       0.01831890      -0.00629173       0.00114148
Au       4.70381379      -2.40829560       3.82700386       0.23642221       0.01202718      -0.01018023       0.01132171
Au       3.78392673       0.00000000       5.31541239       0.23642221       0.00813867      -0.00000000       0.01761343
Au       4.70381379       2.40829560       3.82700386       0.23642221       0.01202718       0.01018023       0.01132171
Au      -2.75953995      -4.46502943      -0.00000000       0.32101013      -0.01086986      -0.01758781       0.00000000
Au      -3.82700386      -4.70381379       2.40829560       0.23642221      -0.01132171      -0.01202718       0.01018023
Au      -1.41870827      -6.19222232       1.48840853       0.23642221      -0.00114148      -0.01831890       0.00629173
Au      -1.41870827      -6.19222232      -1.48840853       0.23642221      -0.00114148      -0.01831890      -0.00629173
Au      -3.82700386      -4.70381379      -2.40829560       0.23642221      -0.01132171      -0.01202718      -0.01018023
Au      -5.31541239      -3.78392673       0.00000000       0.23642221      -0.01761343      -0.00813867      -0.00000000
Au       0.00000000      -2.75953995       4.46502943       0.32101013      -0.00000000      -0.01086986       0.01758781
Au      -2.40829560      -3.82700386       4.70381379       0.23642221      -0.01018023      -0.01132171       0.01202718
Au      -1.48840853      -1.41870827       6.19222232       0.23642221      -0.00629173      -0.00114148       0.01831890
Au       1.48840853      -1.41870827       6.19222232       0.23642221       0.00629173      -0.00114148       0.01831890
Au       2.40829560      -3.82700386       4.70381379       0.23642221       0.01018023      -0.01132171       0.01202718
Au      -0.00000000      -5.31541239       3.78392673       0.23642221       0.00000000      -0.01761343       0.00813867
Au       2.75953995      -4.46502943      -0.00000000       0.32101013       0.01086986      -0.01758781       0.00000000
Au       1.41870827      -6.19222232       1.48840853       0.23642221       0.00114148      -0.01831890       0.00629173
Au       3.82700386      -4.70381379       2.40829560       0.23642221       0.01132171      -0.01202718       0.01018023
Au       5.31541239      -3.78392673       0.00000000       0.23642221       0.01761343      -0.00813867      -0.00000000
Au       3.82700386      -4.70381379      -2.40829560       0.23642221       0.01132171      -0.01202718      -0.01018023
Au       1.41870827      -6.19222232      -1.48840853       0.23642221       0.00114148      -0.01831890      -0.00629173
Au       0.00000000      -2.75953995      -4.46502943       0.32101013      -0.00000000      -0.01086986      -0.01758781
Au      -0.00000000      -5.31541239      -3.78392673       0.23642221       0.00000000      -0.01761343      -0.00813867
Au       2.40829560      -3.82700386      -4.70381379       0.23642221       0.01018023      -0.01132171      -0.01202718
Au       1.48840853      -1.41870827      -6.19222232       0.23642221       0.00629173      -0.00114148      -0.01831890
Au      -1.48840853      -1.41870827      -6.19222232       0.23642221      -0.00629173      -0.00114148      -0.01831890
Au      -2.40829560      -3.82700386      -4.70381379       0.23642221      -0.01018023      -0.01132171      -0.01202718
Au      -4.46502943      -0.00000000      -2.75953995       0.32101013      -0.01758781       0.00000000      -0.01086987
Au      -4.70381379      -2.40829560      -3.82700386       0.23642221      -0.01202718      -0.01018023      -0.01132171
Au      -3.78392673      -0.00000000      -5.31541239       0.23642221      -0.00813867      -0.00000000      -0.01761343
Au      -4.70381379       2.40829560      -3.82700386       0.23642221      -0.01202718       0.01018023      -0.01132171
Au      -6.19222232       1.48840853      -1.41870827       0.23642221      -0.01831890       0.00629173      -0.00114148
Au      -6.19222232      -1.48840853      -1.41870827       0.23642221      -0.01831890      -0.00629173      -0.00114148
Au      -4.46502943      -0.00000000       2.75953995       0.32101013      -0.01758781       0.00000000       0.01086987
Au      -6.19222232      -1.48840853       1.41870827       0.23642221      -0.01831890      -0.00629173       0.00114148
Au      -6.19222232       1.48840853       1.41870827       0.23642221      -0.01831890       0.00629173       0.00114148
Au      -4.70381379       2.40829560       3.82700386       0.23642221      -0.01202718       0.01018023       0.01132171
Au      -3.78392673      -0.00000000       5.31541239       0.23642221      -0.00813867      -0.00000000       0.01761343
Au      -4.70381379      -2.40829560       3.82700386       0.23642221      -0.01202718      -0.01018023       0.01132171
Au       7.29431227       7.29431227       7.29431227       0.13608389       0.00386820       0.00386820       0.00386820
Au      -7.29431227       7.29431227       7.29431227       0.13608389      -0.00386820       0.00386820       0.00386820
Au       7.29431227      -7.29431227       7.29431227       0.13608389       0.00386820      -0.00386820       0.00386820
Au       7.29431227       7.29431227      -7.29431227       0.13608389       0.00386820       0.00386820      -0.00386820
Au      -7.29431227      -7.29431227       7.29431227       0.13608389      -0.00386820      -0.00386820       0.00386820
Au      -7.29431227       7.29431227      -7.29431227       0.13608389      -0.00386820       0.00386820      -0.00386820
Au       7.29431227      -7.29431227      -7.29431227       0.13608389       0.00386820      -0.00386820      -0.00386820
Au      -7.29431227      -7.29431227      -7.29431227       0.13608389      -0.00386820      -0.00386820      -0.00386820
Au       0.00000000      11.80244517       4.50813291       0.13608389       0.00000000       0.00625888       0.00239068
Au      -0.00000000     -11.80244517       4.50813291       0.13608389       0.00000000      -0.00625888       0.00239068
Au       0.00000000      11.80244517      -4.50813291       0.13608389       0.00000000       0.00625888      -0.00239068
Au      -0.00000000     -11.80244517      -4.50813291       0.13608389       0.00000000      -0.00625888      -0.00239068
Au       4.50813291       0.00000000      11.80244517       0.13608389       0.00239068       0.00000000       0.00625888
Au      -4.50813291       0.00000000      11.80244517       0.13608389      -0.00239068       0.00000000       0.00625888
Au       4.50813291      -0.00000000     -11.80244517       0.13608389       0.00239068      -0.00000000      -0.00625888
Au      -4.50813291       0.00000000     -11.80244517       0.13608389      -0.00239068       0.00000000      -0.00625888
Au      11.80244517       4.50813291       0.00000000       0.13608389       0.00625888       0.00239068      -0.00000000
Au      11.80244517      -4.50813291      -0.00000000       0.13608389       0.00625888      -0.00239068      -0.00000000
Au     -11.80244517       4.50813291      -0.00000000       0.13608389      -0.00625888       0.00239068       0.00000000
Au     -11.80244517      -4.50813291      -0.00000000       0.13608389      -0.00625888      -0.00239068      -0.00000000
Au       2.44376664      10.57759382       5.55061217       0.14723527       0.00527257       0.00283530       0.00434161
Au      -2.44376664      10.57759382       5.55061217       0.14723527      -0.00527257       0.00283530       0.00434161
Au       2.44376664     -10.57759382       5.55061217       0.14723527       0.00527257      -0.00283530       0.00434161
Au      -2.44376664     -10.57759382       5.55061217       0.14723527      -0.00527257      -0.00283530       0.00434161
Au       2.44376664      10.57759382      -5.55061217       0.14723527       0.00527257       0.00283530      -0.00434161
Au      -2.44376664      10.57759382      -5.55061217       0.14723527      -0.00527257       0.00283530      -0.00434161
Au       0.00000000      12.08792467      -1.59651468       0.14723527       0.00000000       0.00609392       0.00418958
Au       2.44376664     -10.57759382      -5.55061217       0.14723527       0.00527257      -0.00283530      -0.00434161
Au      -2.44376664     -10.57759382      -5.55061217       0.14723527      -0.00527257      -0.00283530      -0.00434161
Au      -0.00000000     -12.08792467      -1.59651468       0.14723527       0.00000000      -0.00609392       0.00418958
Au       5.55061217       2.44376664      10.57759382       0.14723527       0.00434161       0.00527257       0.00283530
Au       5.55061217      -2.44376664      10.57759382       0.14723527       0.00434161      -0.00527257       0.00283530
Au      -5.55061217       2.44376664      10.57759382       0.14723527      -0.00434161       0.00527257       0.00283530
Au      -5.55061217      -2.44376664      10.57759382       0.14723527      -0.00434161      -0.00527257       0.00283530
Au      -1.59651468       0.00000000      12.08792467       0.14723527       0.00418958      -0.00000000       0.00609392
Au       5.55061217       2.44376664     -10.57759382       0.14723527       0.00434161       0.00527257      -0.00283530
Au       5.55061217      -2.44376664     -10.57759382       0.14723527       0.00434161      -0.00527257      -0.00283530
Au      -5.55061217       2.44376664     -10.57759382       0.14723527      -0.00434161       0.00527257      -0.00283530
Au      -5.55061217      -2.44376664     -10.57759382       0.14723527      -0.00434161      -0.00527257      -0.00283530
Au      -1.59651468       0.00000000     -12.08792467       0.14723527       0.00418958       0.00000000      -0.00609392
Au      10.57759382       5.55061217       2.44376664       0.14723527       0.00283530       0.00434161       0.00527257
Au      10.57759382       5.55061217      -2.44376664       0.14723527       0.00283530       0.00434161      -0.00527257
Au      10.57759382      -5.55061217       2.44376664       0.14723527       0.00283530      -0.00434161       0.00527257
Au      10.57759382      -5.55061217      -2.44376664       0.14723527       0.00283530      -0.00434161      -0.00527257
Au      12.08792467      -1.59651468      -0.00000000       0.14723527       0.00609392       0.00418958      -0.00000000
Au     -10.57759382       5.55061217       2.44376664       0.14723527      -0.00283530       0.00434161       0.00527257
Au     -10.57759382       5.55061217      -2.44376664       0.14723527      -0.00283530       0.00434161      -0.00527257
Au     -10.57759382      -5.55061217       2.44376664       0.14723527      -0.00283530      -0.00434161       0.00527257
Au     -10.57759382      -5.55061217      -2.44376664       0.14723527      -0.00283530      -0.00434161      -0.00527257
Au     -12.08792467      -1.59651468       0.00000000       0.14723527      -0.00609392       0.00418958      -0.00000000
Au       5.02698166       8.98107914       6.53731250       0.14723527      -0.00150632       0.00702487       0.00175231
Au      -5.02698166       8.98107914       6.53731250       0.14723527       0.00150632       0.00702487       0.00175231
Au       5.02698166      -8.98107914       6.53731250       0.14723527      -0.00150632      -0.00702487       0.00175231
Au      -5.02698166      -8.98107914       6.53731250       0.14723527       0.00150632      -0.00702487       0.00175231
Au       5.02698166       8.98107914      -6.53731250       0.14723527      -0.00150632       0.00702487      -0.00175231
Au      -5.02698166       8.98107914      -6.53731250       0.14723527       0.00150632       0.00702487      -0.00175231
Au       0.00000000      12.08792467       1.59651468       0.14723527       0.00000000       0.00609392      -0.00418958
Au       5.02698166      -8.98107914      -6.53731250       0.14723527      -0.00150632      -0.00702487      -0.00175231
Au      -5.02698166      -8.98107914      -6.53731250       0.14723527       0.00150632      -0.00702487      -0.00175231
Au      -0.00000000     -12.08792467       1.59651468       0.14723527       0.00000000      -0.00609392      -0.00418958
Au       6.53731250       5.02698166       8.98107914       0.14723527       0.00175231      -0.00150632       0.00702487
Au       6.53731250      -5.02698166       8.98107914       0.14723527       0.00175231       0.00150632       0.00702487
Au      -6.53731250       5.02698166       8.98107914       0.14723527      -0.00175231      -0.00150632       0.00702487
Au      -6.53731250      -5.02698166       8.98107914       0.14723527      -0.00175231       0.00150632       0.00702487
Au       1.59651468       0.00000000      12.08792467       0.14723527      -0.00418958       0.00000000       0.00609392
Au       6.53731250       5.02698166      -8.98107914       0.14723527       0.00175231      -0.00150632      -0.00702487
Au       6.53731250      -5.02698166      -8.98107914       0.14723527       0.00175231       0.00150632      -0.00702487
Au      -6.53731250       5.02698166      -8.98107914       0.14723527      -0.00175231      -0.00150632      -0.00702487
Au      -6.53731250      -5.02698166      -8.98107914       0.14723527      -0.00175231       0.00150632      -0.00702487
Au       1.59651468       0.00000000     -12.08792467       0.14723527      -0.00418958      -0.00000000      -0.00609392
Au       8.98107914       6.53731250       5.02698166       0.14723527       0.00702487       0.00175231      -0.00150632
Au       8.98107914       6.53731250      -5.02698166       0.14723527       0.00702487       0.00175231       0.00150632
Au       8.98107914      -6.53731250       5.02698166       0.14723527       0.00702487      -0.00175231      -0.00150632
Au       8.98107914      -6.53731250      -5.02698166       0.14723527       0.00702487      -0.00175231       0.00150632
Au      12.08792467       1.59651468      -0.00000000       0.14723527       0.00609392      -0.00418958      -0.00000000
Au      -8.98107914       6.53731250       5.02698166       0.14723527      -0.00702487       0.00175231      -0.00150632
Au      -8.98107914       6.53731250      -5.02698166       0.14723527      -0.00702487       0.00175231       0.00150632
Au      -8.98107914      -6.53731250       5.02698166       0.14723527      -0.00702487      -0.00175231      -0.00150632
Au      -8.98107914      -6.53731250      -5.02698166       0.14723527      -0.00702487      -0.00175231       0.00150632
Au     -12.08792467       1.59651468      -0.00000000       0.14723527      -0.00609392      -0.00418958      -0.00000000
Au       5.18716215       8.39300467       0.00000000       0.12932630       0.00105547       0.00170779      -0.00000000
Au       5.15357020       6.90534228       2.31914343       0.18677557      -0.00625590       0.00141671      -0.01867045
Au       6.27041910       7.20845679       4.75264225       0.12634444       0.00389118       0.00972770      -0.00555249
Au       3.99138698       8.90345907       3.95651261       0.09328128      -0.00237036      -0.00128437       0.00412752
Au       2.83442677       8.33865175       1.43330946       0.18677557       0.01241455      -0.01012227      -0.01153897
Au       1.51777686      10.14575123       2.93729445       0.12634444       0.00944367       0.00629607      -0.00343163
Au       1.54612771      10.41471240       0.00000000       0.09328128      -0.00492131       0.00029221       0.00000000
Au       2.83442677       8.33865175      -1.43330946       0.18677557       0.01241455      -0.01012227       0.01153897
Au       1.51777686      10.14575123      -2.93729445       0.12634444       0.00944367       0.00629607       0.00343163