427
Properties=species:S:1:pos:R:3:energies:R:1:forces:R:3 energy=119.56219093524703 free_energy=119.56219093524703 pbc="F F F"
Au      -0.00000000       0.00000000      -0.00000000       0.60174504       0.00000000      -0.00000000       0.00000001
Au       2.52557183       2.52557183       2.52557183       0.09677101       0.01184609       0.01184609       0.01184609
Au      -2.52557183       2.52557183       2.52557183       0.09677101      -0.01184609       0.01184609       0.01184609
Au       2.52557183      -2.52557183       2.52557183       0.09677101       0.01184609      -0.01184609       0.01184609
Au       2.52557183       2.52557183      -2.52557183       0.09677101       0.01184609       0.01184609      -0.01184609
Au      -2.52557183      -2.52557183       2.52557183       0.09677101      -0.01184609      -0.01184609       0.01184609
Au      -2.52557183       2.52557183      -2.52557183       0.09677101      -0.01184609       0.01184609      -0.01184609
Au       2.52557183      -2.52557183      -2.52557183       0.09677101       0.01184609      -0.01184609      -0.01184609
Au      -2.52557183      -2.52557183      -2.52557183       0.09677101      -0.01184609      -0.01184609      -0.01184609
Au       0.00000000       4.08646105       1.56088923       0.09677101      -0.00000000       0.01916737       0.00732128
Au       0.00000000      -4.08646105       1.56088923       0.09677101      -0.00000000      -0.01916737       0.00732128
Au       0.00000000       4.08646105      -1.56088923       0.09677101      -0.00000000       0.01916737      -0.00732128
Au       0.00000000      -4.08646105      -1.56088923       0.09677101      -0.00000000      -0.01916737      -0.00732128
Au       1.56088923      -0.00000000       4.08646105       0.09677101       0.00732128       0.00000000       0.01916737
Au      -1.56088923      -0.00000000       4.08646105       0.09677101      -0.00732128       0.00000000       0.01916737
Au       1.56088923      -0.00000000      -4.08646105       0.09677101       0.00732128       0.00000000      -0.01916737
Au      -1.56088923      -0.00000000      -4.08646105       0.09677101      -0.00732128       0.00000000      -0.01916737
Au       4.08646105       1.56088923       0.00000000       0.09677101       0.01916737       0.00732128      -0.00000000
Au       4.08646105      -1.56088923       0.00000000       0.09677101       0.01916737      -0.00732128      -0.00000000
Au      -4.08646105       1.56088923       0.00000000       0.09677101      -0.01916737       0.00732128      -0.00000000
Au      -4.08646105      -1.56088923       0.00000000       0.09677101      -0.01916737      -0.00732128      -0.00000000
Au       1.40103579       2.26692353      -0.00000000       0.25500089      -0.00065851      -0.00106550       0.00000000
Au      -0.00000000       1.40103579       2.26692353       0.25500089       0.00000000      -0.00065852      -0.00106550
Au      -1.40103579       2.26692353      -0.00000000       0.25500089       0.00065851      -0.00106549       0.00000000
Au      -0.00000000       1.40103579      -2.26692353       0.25500089       0.00000000      -0.00065851       0.00106549
Au       2.26692353       0.00000000      -1.40103579       0.25500089      -0.00106549      -0.00000000       0.00065851
Au       2.26692353       0.00000000       1.40103579       0.25500089      -0.00106550      -0.00000000      -0.00065852
Au      -1.40103579      -2.26692353      -0.00000000       0.25500089       0.00065851       0.00106550       0.00000000
Au      -0.00000000      -1.40103579       2.26692353       0.25500089       0.00000000       0.00065852      -0.00106550
Au       1.40103579      -2.26692353      -0.00000000       0.25500089      -0.00065851       0.00106550       0.00000000
Au      -0.00000000      -1.40103579      -2.26692353       0.25500089       0.00000000       0.00065851       0.00106549
Au      -2.26692353       0.00000000      -1.40103579       0.25500089       0.00106549      -0.00000000       0.00065851
Au      -2.26692353       0.00000000       1.40103579       0.25500089       0.00106550      -0.00000000      -0.00065851
Au       4.95706580       4.95706580       4.95706580       0.14873549      -0.01690999      -0.01690999      -0.01690999
Au      -4.95706580       4.95706580       4.95706580       0.14873549       0.01690999      -0.01690999      -0.01690999
Au       4.95706580      -4.95706580       4.95706580       0.14873549      -0.01690999       0.01690999      -0.01690999
Au       4.95706580       4.95706580      -4.95706580       0.14873549      -0.01690999      -0.01690999       0.01690999
Au      -4.95706580      -4.95706580       4.95706580       0.14873549       0.01690999       0.01690999      -0.01690999
Au      -4.95706580       4.95706580      -4.95706580       0.14873549       0.01690999      -0.01690999       0.01690999
Au       4.95706580      -4.95706580      -4.95706580       0.14873549      -0.01690999       0.01690999       0.01690999
Au      -4.95706580      -4.95706580      -4.95706580       0.14873549       0.01690999       0.01690999       0.01690999
Au      -0.00000000       8.02070094       3.06363515       0.14873549       0.00000000      -0.02736093      -0.01045095
Au      -0.00000000      -8.02070094       3.06363515       0.14873549       0.00000000       0.02736093      -0.01045095
Au       0.00000000       8.02070094      -3.06363515       0.14873549       0.00000000      -0.02736093       0.01045095
Au      -0.00000000      -8.02070094      -3.06363515       0.14873549       0.00000000       0.02736093       0.01045095
Au       3.06363515       0.00000000       8.02070094       0.14873549      -0.01045095      -0.00000000      -0.02736093
Au      -3.06363515       0.00000000       8.02070094       0.14873549       0.01045095      -0.00000000      -0.02736093
Au       3.06363515      -0.00000000      -8.02070094       0.14873549      -0.01045095      -0.00000000       0.02736093
Au      -3.06363515       0.00000000      -8.02070094       0.14873549       0.01045095       0.00000000       0.02736093
Au       8.02070094       3.06363515      -0.00000000       0.14873549      -0.02736093      -0.01045095       0.00000000
Au       8.02070094      -3.06363515      -0.00000000       0.14873549      -0.02736093       0.01045095       0.00000000
Au      -8.02070094       3.06363515       0.00000000       0.14873549       0.02736093      -0.01045095       0.00000000
Au      -8.02070094      -3.06363515       0.00000000       0.14873549       0.02736093       0.01045095       0.00000000
Au       2.52998926       6.62359786       4.09360861       0.14133416      -0.00326108      -0.00853762      -0.00527654
Au      -2.52998926       6.62359786       4.09360861       0.14133416       0.00326108      -0.00853762      -0.00527654
Au       2.52998926      -6.62359786       4.09360861       0.14133416      -0.00326108       0.00853762      -0.00527654
Au      -2.52998926      -6.62359786       4.09360861       0.14133416       0.00326108       0.00853762      -0.00527654
Au       2.52998926       6.62359786      -4.09360861       0.14133416      -0.00326108      -0.00853762       0.00527654
Au      -2.52998926       6.62359786      -4.09360861       0.14133416       0.00326108      -0.00853762       0.00527654
Au      -0.00000000       8.18721721      -0.00000000       0.14133416       0.00000000      -0.01055308       0.00000000
Au       2.52998926      -6.62359786      -4.09360861       0.14133416      -0.00326108       0.00853762       0.00527654
Au      -2.52998926      -6.62359786      -4.09360861       0.14133416       0.00326108       0.00853762       0.00527654
Au      -0.00000000      -8.18721721      -0.00000000       0.14133416       0.00000000       0.01055308       0.00000000
Au       4.09360861       2.52998926       6.62359786       0.14133416      -0.00527654      -0.00326108      -0.00853762
Au       4.09360861      -2.52998926       6.62359786       0.14133416      -0.00527654       0.00326108      -0.00853762
Au      -4.09360861       2.52998926       6.62359786       0.14133416       0.00527654      -0.00326108      -0.00853762
Au      -4.09360861      -2.52998926       6.62359786       0.14133416       0.00527654       0.00326108      -0.00853762
Au      -0.00000000       0.00000000       8.18721721       0.14133416       0.00000000      -0.00000000      -0.01055308
Au       4.09360861       2.52998926      -6.62359786       0.14133416      -0.00527654      -0.00326108       0.00853762
Au       4.09360861      -2.52998926      -6.62359786       0.14133416      -0.00527654       0.00326108       0.00853762
Au      -4.09360861       2.52998926      -6.62359786       0.14133416       0.00527654      -0.00326108       0.00853762
Au      -4.09360861      -2.52998926      -6.62359786       0.14133416       0.00527654       0.00326108       0.00853762
Au      -0.00000000       0.00000000      -8.18721721       0.14133416       0.00000000      -0.00000000       0.01055308
Au       6.62359786       4.09360861       2.52998926       0.14133416      -0.00853762      -0.00527654      -0.00326108
Au       6.62359786       4.09360861      -2.52998926       0.14133416      -0.00853762      -0.00527654       0.00326108
Au       6.62359786      -4.09360861       2.52998926       0.14133416      -0.00853762       0.00527654      -0.00326108
Au       6.62359786      -4.09360861      -2.52998926       0.14133416      -0.00853762       0.00527654       0.00326108
Au       8.18721721       0.00000000      -0.00000000       0.14133416      -0.01055308      -0.00000000       0.00000000
Au      -6.62359786       4.09360861       2.52998926       0.14133416       0.00853762      -0.00527654      -0.00326108
Au      -6.62359786       4.09360861      -2.52998926       0.14133416       0.00853762      -0.00527654       0.00326108
Au      -6.62359786      -4.09360861       2.52998926       0.14133416       0.00853762       0.00527654      -0.00326108
Au      -6.62359786      -4.09360861      -2.52998926       0.14133416       0.00853762       0.00527654       0.00326108
Au      -8.18721721       0.00000000      -0.00000000       0.14133416       0.01055308      -0.00000000       0.00000000
Au       2.73232107       4.42098836      -0.00000000       0.24901578      -0.01378110      -0.02229829       0.00000000
Au       3.92762149       4.86146841       2.41662544       0.11219267       0.01968468       0.02130275       0.01706659
Au       1.51099605       6.35502507       1.49355666       0.11219267       0.00261809       0.03185048       0.01054773
Au       1.51099605       6.35502507      -1.49355666       0.11219267       0.00261809       0.03185048      -0.01054773
Au       3.92762149       4.86146841      -2.41662544       0.11219267       0.01968468       0.02130275      -0.01706659
Au       5.42117816       3.93839963      -0.00000000       0.11219267       0.03023241       0.01478389       0.00000000
Au      -0.00000000       2.73232107       4.42098836       0.24901578       0.00000000      -0.01378110      -0.02229829
Au       2.41662544       3.92762149       4.86146841       0.11219267       0.01706659       0.01968468       0.02130275
Au       1.49355666       1.51099605       6.35502507       0.11219267       0.01054773       0.00261809       0.03185048
Au      -1.49355666       1.51099605       6.35502507       0.11219267      -0.01054773       0.00261809       0.03185048
Au      -2.41662544       3.92762149       4.86146841       0.11219267      -0.01706659       0.01968468       0.02130275
Au      -0.00000000       5.42117816       3.93839963       0.11219267       0.00000000       0.03023241       0.01478389
Au      -2.73232107       4.42098836      -0.00000000       0.24901578       0.01378110      -0.02229830       0.00000000
Au      -1.51099605       6.35502507       1.49355666       0.11219267      -0.00261809       0.03185048       0.01054773
Au      -3.92762149       4.86146841       2.41662544       0.11219267      -0.01968468       0.02130275       0.01706659
Au      -5.42117816       3.93839963      -0.00000000       0.11219267      -0.03023241       0.01478389       0.00000000
Au      -3.92762149       4.86146841      -2.41662544       0.11219267      -0.01968468       0.02130275      -0.01706659
Au      -1.51099605       6.35502507      -1.49355666       0.11219267      -0.00261809       0.03185048      -0.01054773
Au      -0.00000000       2.73232107      -4.42098836       0.24901578       0.00000000      -0.01378111       0.02229830
Au       0.00000000       5.42117816      -3.93839963       0.11219267       0.00000000       0.03023241      -0.01478389
Au      -2.41662544       3.92762149      -4.86146841       0.11219267      -0.01706659       0.01968468      -0.02130275
Au      -1.49355666       1.51099605      -6.35502507       0.11219267      -0.01054773       0.00261809      -0.03185048
Au       1.49355666       1.51099605      -6.35502507       0.11219267       0.01054773       0.00261809      -0.03185048
Au       2.41662544       3.92762149      -4.86146841       0.11219267       0.01706659       0.01968468      -0.02130275
Au       4.42098836       0.00000000      -2.73232107       0.24901578      -0.02229830      -0.00000000       0.01378110
Au       4.86146841       2.41662544      -3.92762149       0.11219267       0.02130275       0.01706659      -0.01968468
Au       3.93839963      -0.00000000      -5.42117816       0.11219267       0.01478389      -0.00000000      -0.03023241
Au       4.86146841      -2.41662544      -3.92762149       0.11219267       0.02130275      -0.01706659      -0.01968468
Au       6.35502507      -1.49355666      -1.51099605       0.11219267       0.03185048      -0.01054773      -0.00261809
Au       6.35502507       1.49355666      -1.51099605       0.11219267       0.03185048       0.01054773      -0.00261809
Au       4.42098836       0.00000000       2.73232107       0.24901578      -0.02229829      -0.00000000      -0.01378110
Au       6.35502507       1.49355666       1.51099605       0.11219267       0.03185048       0.01054773       0.00261809
Au       6.35502507      -1.49355666       1.51099605       0.11219267       0.03185048      -0.01054773       0.00261809
Au       4.86146841      -2.41662544       3.92762149       0.11219267       0.02130275      -0.01706659       0.01968468
Au       3.93839963       0.00000000       5.42117816       0.11219267       0.01478389      -0.00000000       0.03023241
Au       4.86146841       2.41662544       3.92762149       0.11219267       0.02130275       0.01706659       0.01968468
Au      -2.73232107      -4.42098836      -0.00000000       0.24901578       0.01378110       0.02229829       0.00000000
Au      -3.92762149      -4.86146841       2.41662544       0.11219267      -0.01968468      -0.02130275       0.01706659
Au      -1.51099605      -6.35502507       1.49355666       0.11219267      -0.00261809      -0.03185048       0.01054773
Au      -1.51099605      -6.35502507      -1.49355666       0.11219267      -0.00261809      -0.03185048      -0.01054773
Au      -3.92762149      -4.86146841      -2.41662544       0.11219267      -0.01968468      -0.02130275      -0.01706659
Au      -5.42117816      -3.93839963      -0.00000000       0.11219267      -0.03023241      -0.01478389       0.00000000
Au      -0.00000000      -2.73232107       4.42098836       0.24901578       0.00000000       0.01378110      -0.02229829
Au      -2.41662544      -3.92762149       4.86146841       0.11219267      -0.01706659      -0.01968468       0.02130275
Au      -1.49355666      -1.51099605       6.35502507       0.11219267      -0.01054773      -0.00261809       0.03185048
Au       1.49355666      -1.51099605       6.35502507       0.11219267       0.01054773      -0.00261809       0.03185048
Au       2.41662544      -3.92762149       4.86146841       0.11219267       0.01706659      -0.01968468       0.02130275
Au      -0.00000000      -5.42117816       3.93839963       0.11219267       0.00000000      -0.03023241       0.01478389
Au       2.73232107      -4.42098836      -0.00000000       0.24901578      -0.01378110       0.02229829       0.00000000
Au       1.51099605      -6.35502507       1.49355666       0.11219267       0.00261809      -0.03185048       0.01054773
Au       3.92762149      -4.86146841       2.41662544       0.11219267       0.01968468      -0.02130275       0.01706659
Au       5.42117816      -3.93839963      -0.00000000       0.11219267       0.03023241      -0.01478389       0.00000000
Au       3.92762149      -4.86146841      -2.41662544       0.11219267       0.01968468      -0.02130275      -0.01706659
Au       1.51099605      -6.35502507      -1.49355666       0.11219267       0.00261809      -0.03185048      -0.01054773
Au      -0.00000000      -2.73232107      -4.42098836       0.24901578       0.00000000       0.01378111       0.02229830
Au      -0.00000000      -5.42117816      -3.93839963       0.11219267       0.00000000      -0.03023241      -0.01478389
Au       2.41662544      -3.92762149      -4.86146841       0.11219267       0.01706659      -0.01968468      -0.02130275
Au       1.49355666      -1.51099605      -6.35502507       0.11219267       0.01054773      -0.00261809      -0.03185048
Au      -1.49355666      -1.51099605      -6.35502507       0.11219267      -0.01054773      -0.00261809      -0.03185048
Au      -2.41662544      -3.92762149      -4.86146841       0.11219267      -0.01706659      -0.01968468      -0.02130275
Au      -4.42098836       0.00000000      -2.73232107       0.24901578       0.02229830      -0.00000000       0.01378111
Au      -4.86146841      -2.41662544      -3.92762149       0.11219267      -0.02130275      -0.01706659      -0.01968468
Au      -3.93839963      -0.00000000      -5.42117816       0.11219267      -0.01478389      -0.00000000      -0.03023241
Au      -4.86146841       2.41662544      -3.92762149       0.11219267      -0.02130275       0.01706659      -0.01968468
Au      -6.35502507       1.49355666      -1.51099605       0.11219267      -0.03185048       0.01054773      -0.00261809
Au      -6.35502507      -1.49355666      -1.51099605       0.11219267      -0.03185048      -0.01054773      -0.00261809
Au      -4.42098836       0.00000000       2.73232107       0.24901578       0.02229829      -0.00000000      -0.01378110
Au      -6.35502507      -1.49355666       1.51099605       0.11219267      -0.03185048      -0.01054773       0.00261809
Au      -6.35502507       1.49355666       1.51099605       0.11219267      -0.03185048       0.01054773       0.00261809
Au      -4.86146841       2.41662544       3.92762149       0.11219267      -0.02130275       0.01706659       0.01968468
Au      -3.93839963       0.00000000       5.42117816       0.11219267      -0.01478389      -0.00000000       0.03023241
Au      -4.86146841      -2.41662544       3.92762149       0.11219267      -0.02130275      -0.01706659       0.01968468
Au       7.34267233       7.34267233       7.34267233       0.51470420      -0.00165742      -0.00165742      -0.00165742
Au      -7.34267233       7.34267233       7.34267233       0.51470420       0.00165742      -0.00165742      -0.00165742
Au       7.34267233      -7.34267233       7.34267233       0.51470420      -0.00165742       0.00165742      -0.00165742
Au       7.34267233       7.34267233      -7.34267233       0.51470420      -0.00165742      -0.00165742       0.00165742
Au      -7.34267233      -7.34267233       7.34267233       0.51470420       0.00165742       0.00165742      -0.00165742
Au      -7.34267233       7.34267233      -7.34267233       0.51470420       0.00165742      -0.00165742       0.00165742
Au       7.34267233      -7.34267233      -7.34267233       0.51470420      -0.00165742       0.00165742       0.00165742
Au      -7.34267233      -7.34267233      -7.34267233       0.51470420       0.00165742       0.00165742       0.00165742
Au       0.00000000      11.88069340       4.53802107       0.51470420       0.00000000      -0.00268176      -0.00102434
Au       0.00000000     -11.88069340       4.53802107       0.51470420       0.00000000       0.00268176      -0.00102434
Au      -0.00000000      11.88069340      -4.53802107       0.51470420       0.00000000      -0.00268176       0.00102434
Au       0.00000000     -11.88069340      -4.53802107       0.51470420       0.00000000       0.00268176       0.00102434
Au       4.53802107      -0.00000000      11.88069340       0.51470420      -0.00102434      -0.00000000      -0.00268176
Au      -4.53802107      -0.00000000      11.88069340       0.51470420       0.00102434      -0.00000000      -0.00268176
Au       4.53802107       0.00000000     -11.88069340       0.51470420      -0.00102434      -0.00000000       0.00268176
Au      -4.53802107      -0.00000000     -11.88069340       0.51470420       0.00102434      -0.00000000       0.00268176
Au      11.88069340       4.53802107      -0.00000000       0.51470420      -0.00268176      -0.00102434       0.00000000
Au      11.88069340      -4.53802107      -0.00000000       0.51470420      -0.00268176       0.00102434       0.00000000
Au     -11.88069340       4.53802107      -0.00000000       0.51470420       0.00268176      -0.00102434       0.00000000
Au     -11.88069340      -4.53802107      -0.00000000       0.51470420       0.00268176       0.00102434       0.00000000
Au       2.40276548      10.57666793       5.52491840       0.53283594       0.00461342       0.00528387       0.00486951
Au      -2.40276548      10.57666793       5.52491840       0.53283594      -0.00461342       0.00528387       0.00486951
Au       2.40276548     -10.57666793       5.52491840       0.53283594       0.00461342      -0.00528387       0.00486951
Au      -2.40276548     -10.57666793       5.52491840       0.53283594      -0.00461342      -0.00528387       0.00486951
Au       2.40276548      10.57666793      -5.52491840       0.53283594       0.00461342       0.00528387      -0.00486951
Au      -2.40276548      10.57666793      -5.52491840       0.53283594      -0.00461342       0.00528387      -0.00486951
Au       0.00000000      12.06165866      -1.63716218       0.53283594       0.00000000       0.00813511       0.00259516
Au       2.40276548     -10.57666793      -5.52491840       0.53283594       0.00461342      -0.00528387      -0.00486951
Au      -2.40276548     -10.57666793      -5.52491840       0.53283594      -0.00461342      -0.00528387      -0.00486951
Au       0.00000000     -12.06165866      -1.63716218       0.53283594       0.00000000      -0.00813511       0.00259516
Au       5.52491840       2.40276548      10.57666793       0.53283594       0.00486951       0.00461342       0.00528387
Au       5.52491840      -2.40276548      10.57666793       0.53283594       0.00486951      -0.00461342       0.00528387
Au      -5.52491840       2.40276548      10.57666793       0.53283594      -0.00486951       0.00461342       0.00528387
Au      -5.52491840      -2.40276548      10.57666793       0.53283594      -0.00486951      -0.00461342       0.00528387
Au      -1.63716218       0.00000000      12.06165866       0.53283594       0.00259516      -0.00000000       0.00813511
Au       5.52491840       2.40276548     -10.57666793       0.53283594       0.00486951       0.00461342      -0.00528387
Au       5.52491840      -2.40276548     -10.57666793       0.53283594       0.00486951      -0.00461342      -0.00528387
Au      -5.52491840       2.40276548     -10.57666793       0.53283594      -0.00486951       0.00461342      -0.00528387
Au      -5.52491840      -2.40276548     -10.57666793       0.53283594      -0.00486951      -0.00461342      -0.00528387
Au      -1.63716218      -0.00000000     -12.06165866       0.53283594       0.00259516      -0.00000000      -0.00813511
Au      10.57666793       5.52491840       2.40276548       0.53283594       0.00528387       0.00486951       0.00461342
Au      10.57666793       5.52491840      -2.40276548       0.53283594       0.00528387       0.00486951      -0.00461342
Au      10.57666793      -5.52491840       2.40276548       0.53283594       0.00528387      -0.00486951       0.00461342
Au      10.57666793      -5.52491840      -2.40276548       0.53283594       0.00528387      -0.00486951      -0.00461342
Au      12.06165866      -1.63716218       0.00000000       0.53283594       0.00813511       0.00259516      -0.00000000
Au     -10.57666793       5.52491840       2.40276548       0.53283594      -0.00528387       0.00486951       0.00461342
Au     -10.57666793       5.52491840      -2.40276548       0.53283594      -0.00528387       0.00486951      -0.00461342
Au     -10.57666793      -5.52491840       2.40276548       0.53283594      -0.00528387      -0.00486951       0.00461342
Au     -10.57666793      -5.52491840      -2.40276548       0.53283594      -0.00528387      -0.00486951      -0.00461342
Au     -12.06165866      -1.63716218      -0.00000000       0.53283594      -0.00813511       0.00259516       0.00000000
Au       5.05174953       8.93950575       6.53674027       0.53283594       0.00041436       0.00787903       0.00326561
Au      -5.05174953       8.93950575       6.53674027       0.53283594      -0.00041436       0.00787903       0.00326561
Au       5.05174953      -8.93950575       6.53674027       0.53283594       0.00041436      -0.00787903       0.00326561
Au      -5.05174953      -8.93950575       6.53674027       0.53283594      -0.00041436      -0.00787903       0.00326561
Au       5.05174953       8.93950575      -6.53674027       0.53283594       0.00041436       0.00787903      -0.00326561
Au      -5.05174953       8.93950575      -6.53674027       0.53283594      -0.00041436       0.00787903      -0.00326561
Au      -0.00000000      12.06165866       1.63716218       0.53283594       0.00000000       0.00813511      -0.00259516
Au       5.05174953      -8.93950575      -6.53674027       0.53283594       0.00041436      -0.00787903      -0.00326561
Au      -5.05174953      -8.93950575      -6.53674027       0.53283594      -0.00041436      -0.00787903      -0.00326561
Au       0.00000000     -12.06165866       1.63716218       0.53283594       0.00000000      -0.00813511      -0.00259516
Au       6.53674027       5.05174953       8.93950575       0.53283594       0.00326561       0.00041436       0.00787903
Au       6.53674027      -5.05174953       8.93950575       0.53283594       0.00326561      -0.00041436       0.00787903
Au      -6.53674027       5.05174953       8.93950575       0.53283594      -0.00326561       0.00041436       0.00787903
Au      -6.53674027      -5.05174953       8.93950575       0.53283594      -0.00326561      -0.00041436       0.00787903
Au       1.63716218      -0.00000000      12.06165866       0.53283594      -0.00259516      -0.00000000       0.00813511
Au       6.53674027       5.05174953      -8.93950575       0.53283594       0.00326561       0.00041436      -0.00787903
Au       6.53674027      -5.05174953      -8.93950575       0.53283594       0.00326561      -0.00041436      -0.00787903
Au      -6.53674027       5.05174953      -8.93950575       0.53283594      -0.00326561       0.00041436      -0.00787903
Au      -6.53674027      -5.05174953      -8.93950575       0.53283594      -0.00326561      -0.00041436      -0.00787903
Au       1.63716218      -0.00000000     -12.06165866       0.53283594      -0.00259516       0.00000000      -0.00813511
Au       8.93950575       6.53674027       5.05174953       0.53283594       0.00787903       0.00326561       0.00041436
Au       8.93950575       6.53674027      -5.05174953       0.53283594       0.00787903       0.00326561      -0.00041436
Au       8.93950575      -6.53674027       5.05174953       0.53283594       0.00787903      -0.00326561       0.00041436
Au       8.93950575      -6.53674027      -5.05174953       0.53283594       0.00787903      -0.00326561      -0.00041436
Au      12.06165866       1.63716218       0.00000000       0.53283594       0.00813511      -0.00259516       0.00000000
Au      -8.93950575       6.53674027       5.05174953       0.53283594      -0.00787903       0.00326561       0.00041436
Au      -8.93950575       6.53674027      -5.05174953       0.53283594      -0.00787903       0.00326561      -0.00041436
Au      -8.93950575      -6.53674027       5.05174953       0.53283594      -0.00787903      -0.00326561       0.00041436
Au      -8.93950575      -6.53674027      -5.05174953       0.53283594      -0.00787903      -0.00326561      -0.00041436
Au     -12.06165866       1.63716218      -0.00000000       0.53283594      -0.00813511      -0.00259516       0.00000000
Au       4.12508854       6.67453346      -0.00000000       0.19650522       0.00439284       0.00710777       0.00000000
Au       5.33498576       7.16273852       2.37761966       0.27793552       0.01112533       0.00679457       0.01813264
Au       6.36321001       7.29490224       4.85570032       0.27570104      -0.00477507      -0.00527119      -0.00397233
Au       3.95030949       8.91129657       4.07673621       0.31983391       0.00251814       0.00791194       0.00620920
Au       2.95736610       8.63218829       1.46944976       0.27793552      -0.00700732       0.01800116       0.01120659
Au       1.50750969      10.29589007       3.00098784       0.27570104      -0.00080274      -0.00772623      -0.00245503
Au       1.43074795      10.46847124       0.00000000       0.31983391      -0.00131935       0.01028365      -0.00000000
Au       2.95736610       8.63218829      -1.46944976       0.27793552      -0.00700732       0.01800116      -0.01120659
Au       1.50750969      10.29589007      -3.00098784       0.27570104      -0.00080274      -0.00772623       0.00245503