3429
Lattice="81.565 0.0 0.0 0.0 81.565 0.0 0.0 0.0 81.565" Properties=species:S:1:pos:R:3:spacegroup_kinds:I:1:energies:R:1:forces:R:3 energy=324.07957449007216 free_energy=324.07957449007216 stress="6.20901350424578e-05 5.3195152248577235e-19 -2.2908696912589206e-18 5.3195152248577235e-19 6.209013504246074e-05 -5.186527344236281e-18 -2.2908696912589206e-18 -5.186527344236281e-18 6.209013504245905e-05" pbc="T T T"
Au     -17.99167576     -17.99167576     -16.09356289        0       0.54332924       0.02883860       0.02883860      -0.00455069
Au     -18.02591210     -18.02591210     -12.12016115        0       0.54120918       0.01835316       0.01835316      -0.02721939
Au     -18.00706827     -18.00706827      -8.11230993        0       0.54203440       0.00759157       0.00759157       0.01318824
Au     -17.98043185     -17.98043185      -4.06783950        0       0.54245938      -0.01079254      -0.01079254       0.01395245
Au     -17.99167576     -16.09356289     -17.99167576        0       0.54332924       0.02883860      -0.00455069       0.02883860
Au     -18.13104069     -16.12954266     -14.10365163        0       0.28126044       0.00910320       0.00612417       0.00021706
Au     -18.13104069     -14.10365163     -16.12954266        0       0.28126044       0.00910320       0.00021706       0.00612417
Au     -18.15604173     -16.15938402     -10.12946150        0       0.28533240       0.03633554       0.00810120       0.03205949
Au     -18.18284445     -14.13120801     -12.11421808        0       0.27726935       0.00913204       0.01053064      -0.00610215
Au     -18.11852071     -16.14005939      -6.09683979        0       0.28469102       0.01002030      -0.00829065       0.01417747
Au     -18.16412937     -14.14677630      -8.11151528        0       0.27673616      -0.01307916       0.00316444       0.01145879
Au     -18.10360456     -16.13233553      -2.03520249        0       0.28566622       0.00968902       0.00050188       0.00582497
Au     -18.13425481     -14.13747290      -4.06609704        0       0.27769219      -0.01760339      -0.00218656       0.00926243
Au     -18.02591210     -12.12016115     -18.02591210        0       0.54120918       0.01835316      -0.02721939       0.01835316
Au     -18.18284445     -12.11421808     -14.13120801        0       0.27726935       0.00913204      -0.00610215       0.01053064
Au     -18.15604173     -10.12946150     -16.15938402        0       0.28533240       0.03633554       0.03205949       0.00810120
Au     -18.23118820     -12.12631497     -10.11073327        0       0.28289839       0.04636230      -0.00724304       0.00319458
Au     -18.23118820     -10.11073327     -12.12631497        0       0.28289839       0.04636230       0.00319458      -0.00724304
Au     -18.18954515     -12.13475348      -6.08857329        0       0.28254372       0.01546892      -0.01093582       0.01460579
Au     -18.22317296     -10.11688105      -8.09852009        0       0.28286552       0.02472646       0.00011875       0.00984822
Au     -18.16804582     -12.13149488      -2.03355713        0       0.28414738       0.00876047      -0.00918546       0.00697619
Au     -18.18425415     -10.12069460      -4.06207465        0       0.28410958       0.01125241      -0.00235663       0.01334846
Au     -18.00706827      -8.11230993     -18.00706827        0       0.54203440       0.00759157       0.01318824       0.00759157
Au     -18.16412937      -8.11151528     -14.14677630        0       0.27673616      -0.01307916       0.01145879       0.00316444
Au     -18.11852071      -6.09683979     -16.14005939        0       0.28469102       0.01002030       0.01417747      -0.00829065
Au     -18.22317296      -8.09852009     -10.11688105        0       0.28286552       0.02472646       0.00984822       0.00011875
Au     -18.18954515      -6.08857329     -12.13475348        0       0.28254372       0.01546892       0.01460579      -0.01093582
Au     -18.18001373      -8.10288170      -6.08333277        0       0.28192202      -0.01227221       0.00994453       0.01688440
Au     -18.18001373      -6.08333277      -8.10288170        0       0.28192202      -0.01227221       0.01688440       0.00994453
Au     -18.15352917      -8.10532738      -2.03231814        0       0.28373832      -0.02156334       0.01148610       0.00947069
Au     -18.13984894      -6.08648610      -4.06135170        0       0.28312684      -0.02970233       0.01906794       0.01799019
Au     -17.98043185      -4.06783950     -17.98043185        0       0.54245938      -0.01079254       0.01395245      -0.01079254
Au     -18.13425481      -4.06609704     -14.13747290        0       0.27769219      -0.01760339       0.00926243      -0.00218656
Au     -18.10360456      -2.03520249     -16.13233553        0       0.28566622       0.00968902       0.00582497       0.00050188
Au     -18.18425415      -4.06207465     -10.12069460        0       0.28410958       0.01125241       0.01334846      -0.00235663
Au     -18.16804582      -2.03355713     -12.13149488        0       0.28414738       0.00876047       0.00697619      -0.00918546
Au     -18.13984894      -4.06135170      -6.08648610        0       0.28312684      -0.02970233       0.01799019       0.01906794
Au     -18.15352917      -2.03231814      -8.10532738        0       0.28373832      -0.02156334       0.00947069       0.01148610
Au     -18.11312007      -4.06312863      -2.03272271        0       0.28517160      -0.03954952       0.01910972       0.01135882
Au     -18.11312007      -2.03272271      -4.06312863        0       0.28517160      -0.03954952       0.01135882       0.01910972
Au     -16.09356289     -17.99167576     -17.99167576        0       0.54332924      -0.00455069       0.02883860       0.02883860
Au     -16.12954266     -18.13104069     -14.10365163        0       0.28126044       0.00612417       0.00910320       0.00021706
Au     -14.10365163     -18.13104069     -16.12954266        0       0.28126044       0.00021706       0.00910320       0.00612417
Au     -16.15938402     -18.15604173     -10.12946150        0       0.28533240       0.00810120       0.03633554       0.03205949
Au     -14.13120801     -18.18284445     -12.11421808        0       0.27726935       0.01053064       0.00913204      -0.00610215
Au     -16.14005939     -18.11852071      -6.09683979        0       0.28469102      -0.00829065       0.01002030       0.01417747
Au     -14.14677630     -18.16412937      -8.11151528        0       0.27673616       0.00316444      -0.01307916       0.01145879
Au     -16.13233553     -18.10360456      -2.03520249        0       0.28566622       0.00050188       0.00968902       0.00582497
Au     -14.13747290     -18.13425481      -4.06609704        0       0.27769219      -0.00218656      -0.01760339       0.00926243
Au     -16.12954266     -14.10365163     -18.13104069        0       0.28126044       0.00612417       0.00021706       0.00910320
Au     -14.10365163     -16.12954266     -18.13104069        0       0.28126044       0.00021706       0.00612417       0.00910320
Au     -16.06923023     -16.06923023     -16.06923023        0       0.09857209      -0.00300473      -0.00300473      -0.00300473
Au     -16.18492572     -14.09051577     -14.09051577        0       0.02215294       0.02946248      -0.00137285      -0.00137285
Au     -14.09051577     -16.18492572     -14.09051577        0       0.02215294      -0.00137285       0.02946248      -0.00137285
Au     -14.09051577     -14.09051577     -16.18492572        0       0.02215294      -0.00137285      -0.00137285       0.02946248
Au     -16.13810520     -16.13810520     -12.11418545        0       0.05979359       0.02120288       0.02120288       0.00667250
Au     -16.21886868     -14.11985156     -10.12317436        0       0.02183630       0.03135567      -0.00170424       0.01599363
Au     -14.11985156     -16.21886868     -10.12317436        0       0.02183630      -0.00170424       0.03135567       0.01599363
Au     -14.12885901     -14.12885901     -12.11009202        0      -0.00002228       0.00811548       0.00811548       0.01077019
Au     -16.12874191     -16.12874191      -8.12530231        0       0.06130791      -0.00889170      -0.00889170       0.02450671
Au     -16.19335089     -14.11605318      -6.09919041        0       0.02002041       0.01346850      -0.00690259       0.01090674
Au     -14.11605318     -16.19335089      -6.09919041        0       0.02002041      -0.00690259       0.01346850       0.01090674
Au     -14.13620116     -14.13620116      -8.11577528        0      -0.00112167       0.00043252       0.00043252       0.01655238
Au     -16.10801034     -16.10801034      -4.06829270        0       0.06524504       0.00183886       0.00183886       0.00284698
Au     -16.18087159     -14.10904999      -2.03414118        0       0.02056895       0.01336694      -0.00459960       0.00102696
Au     -14.10904999     -16.18087159      -2.03414118        0       0.02056895      -0.00459960       0.01336694       0.00102696
Au     -14.12171032     -14.12171032      -4.06392595        0      -0.00079214      -0.00880865      -0.00880865      -0.00337007
Au     -16.15938402     -10.12946150     -18.15604173        0       0.28533240       0.00810120       0.03205949       0.03633554
Au     -14.13120801     -12.11421808     -18.18284445        0       0.27726935       0.01053064      -0.00610215       0.00913204
Au     -16.13810520     -12.11418545     -16.13810520        0       0.05979359       0.02120288       0.00667250       0.02120288
Au     -16.21886868     -10.12317436     -14.11985156        0       0.02183630       0.03135567       0.01599363      -0.00170424
Au     -14.12885901     -12.11009202     -14.12885901        0      -0.00002228       0.00811548       0.01077019       0.00811548
Au     -14.11985156     -10.12317436     -16.21886868        0       0.02183630      -0.00170424       0.01599363       0.03135567
Au     -16.23897393     -12.10292478     -12.10292478        0       0.02557196       0.00382079      -0.01897592      -0.01897592
Au     -16.27165863     -10.11363689     -10.11363689        0       0.02475748       0.03383189       0.01258153       0.01258153
Au     -14.16523962     -12.12053904     -10.11245851        0       0.00093432      -0.00753947       0.01490579       0.01430821
Au     -14.16523962     -10.11245851     -12.12053904        0       0.00093432      -0.00753947       0.01430821       0.01490579
Au     -16.24175508     -12.11914733      -8.11466987        0       0.02224432      -0.00036623      -0.00959280       0.01967440
Au     -16.24622267     -10.12544957      -6.09101040        0       0.02239531       0.01366321       0.02303372       0.00934699
Au     -14.16292328     -12.12474432      -6.08972956        0      -0.00064537      -0.00093244       0.01201682       0.00165458
Au     -14.18481613     -10.11588030      -8.10445723        0      -0.00123253      -0.00126537       0.01609405       0.01654667
Au     -16.21756165     -12.11935373      -4.06564289        0       0.02246450      -0.00675787      -0.01058740       0.00187738
Au     -16.22945892     -10.12626249      -2.03263633        0       0.02322874       0.01010547       0.02151685       0.00114082
Au     -14.15068420     -12.11839999      -2.03114972        0      -0.00049924      -0.00748293       0.00652782      -0.00227563
Au     -14.17083786     -10.11825873      -4.05896628        0      -0.00179713      -0.01388114       0.00966637      -0.00451552
Au     -16.14005939      -6.09683979     -18.11852071        0       0.28469102      -0.00829065       0.01417747       0.01002030
Au     -14.14677630      -8.11151528     -18.16412937        0       0.27673616       0.00316444       0.01145879      -0.01307916
Au     -16.12874191      -8.12530231     -16.12874191        0       0.06130791      -0.00889170       0.02450671      -0.00889170
Au     -16.19335089      -6.09919041     -14.11605318        0       0.02002041       0.01346850       0.01090674      -0.00690259
Au     -14.13620116      -8.11577528     -14.13620116        0      -0.00112167       0.00043252       0.01655238       0.00043252
Au     -14.11605318      -6.09919041     -16.19335089        0       0.02002041      -0.00690259       0.01090674       0.01346850
Au     -16.24175508      -8.11466987     -12.11914733        0       0.02224432      -0.00036623       0.01967440      -0.00959280
Au     -16.24622267      -6.09101040     -10.12544957        0       0.02239531       0.01366321       0.00934699       0.02303372
Au     -14.18481613      -8.10445723     -10.11588030        0      -0.00123253      -0.00126537       0.01654667       0.01609405
Au     -14.16292328      -6.08972956     -12.12474432        0      -0.00064537      -0.00093244       0.00165458       0.01201682
Au     -16.25024647      -8.11159730      -8.11159730        0       0.02182883      -0.00101185       0.02523663       0.02523663
Au     -16.21920708      -6.09052871      -6.09052871        0       0.02264792      -0.01379370       0.01197070       0.01197070
Au     -14.18726133      -8.10652022      -6.08278938        0      -0.00231251       0.00506410       0.01242043      -0.00137684
Au     -14.18726133      -6.08278938      -8.10652022        0      -0.00231251       0.00506410      -0.00137684       0.01242043
Au     -16.22335294      -8.11690548      -4.06208512        0       0.02241078      -0.01074598       0.02233990       0.00395321
Au     -16.20065466      -6.09263049      -2.03166159        0       0.02339441      -0.02018838       0.00972124       0.00276724
Au     -14.17345380      -8.10814899      -2.02915648        0      -0.00248949      -0.00595456       0.00978006      -0.00164166
Au     -14.17159754      -6.08392065      -4.05610098        0      -0.00243030      -0.01581518      -0.00420910      -0.00483846
Au     -16.13233553      -2.03520249     -18.10360456        0       0.28566622       0.00050188       0.00582497       0.00968902
Au     -14.13747290      -4.06609704     -18.13425481        0       0.27769219      -0.00218656       0.00926243      -0.01760339
Au     -16.10801034      -4.06829270     -16.10801034        0       0.06524504       0.00183886       0.00284698       0.00183886
Au     -16.18087159      -2.03414118     -14.10904999        0       0.02056895       0.01336694       0.00102696      -0.00459960
Au     -14.12171032      -4.06392595     -14.12171032        0      -0.00079214      -0.00880865      -0.00337007      -0.00880865
Au     -14.10904999      -2.03414118     -16.18087159        0       0.02056895      -0.00459960       0.00102696       0.01336694
Au     -16.21756165      -4.06564289     -12.11935373        0       0.02246450      -0.00675787       0.00187738      -0.01058740
Au     -16.22945892      -2.03263633     -10.12626249        0       0.02322874       0.01010547       0.00114082       0.02151685
Au     -14.17083786      -4.05896628     -10.11825873        0      -0.00179713      -0.01388114      -0.00451552       0.00966637
Au     -14.15068420      -2.03114972     -12.11839999        0      -0.00049924      -0.00748293      -0.00227563       0.00652782
Au     -16.22335294      -4.06208512      -8.11690548        0       0.02241078      -0.01074598       0.00395321       0.02233990
Au     -16.20065466      -2.03166159      -6.09263049        0       0.02339441      -0.02018838       0.00276724       0.00972124
Au     -14.17159754      -4.05610098      -6.08392065        0      -0.00243030      -0.01581518      -0.00483846      -0.00420910
Au     -14.17345380      -2.02915648      -8.10814899        0      -0.00248949      -0.00595456      -0.00164166       0.00978006
Au     -16.19550671      -4.06255537      -4.06255537        0       0.02382111      -0.02287347       0.00524212       0.00524212
Au     -16.18251970      -2.03212767      -2.03212767        0       0.02420028      -0.02417883       0.00345697       0.00345697
Au     -14.15685259      -4.05731928      -2.02867561        0      -0.00245573      -0.02708900      -0.00281695       0.00024959
Au     -14.15685259      -2.02867561      -4.05731928        0      -0.00245573      -0.02708900       0.00024959      -0.00281695
Au     -12.12016115     -18.02591210     -18.02591210        0       0.54120918      -0.02721939       0.01835316       0.01835316
Au     -12.11421808     -18.18284445     -14.13120801        0       0.27726935      -0.00610215       0.00913204       0.01053064
Au     -10.12946150     -18.15604173     -16.15938402        0       0.28533240       0.03205949       0.03633554       0.00810120
Au     -12.12631497     -18.23118820     -10.11073327        0       0.28289839      -0.00724304       0.04636230       0.00319458
Au     -10.11073327     -18.23118820     -12.12631497        0       0.28289839       0.00319458       0.04636230      -0.00724304
Au     -12.13475348     -18.18954515      -6.08857329        0       0.28254372      -0.01093582       0.01546892       0.01460579
Au     -10.11688105     -18.22317296      -8.09852009        0       0.28286552       0.00011875       0.02472646       0.00984822
Au     -12.13149488     -18.16804582      -2.03355713        0       0.28414738      -0.00918546       0.00876047       0.00697619
Au     -10.12069460     -18.18425415      -4.06207465        0       0.28410958      -0.00235663       0.01125241       0.01334846
Au     -12.11421808     -14.13120801     -18.18284445        0       0.27726935      -0.00610215       0.01053064       0.00913204
Au     -10.12946150     -16.15938402     -18.15604173        0       0.28533240       0.03205949       0.00810120       0.03633554
Au     -12.11418545     -16.13810520     -16.13810520        0       0.05979359       0.00667250       0.02120288       0.02120288
Au     -12.11009202     -14.12885901     -14.12885901        0      -0.00002228       0.01077019       0.00811548       0.00811548
Au     -10.12317436     -16.21886868     -14.11985156        0       0.02183630       0.01599363       0.03135567      -0.00170424
Au     -10.12317436     -14.11985156     -16.21886868        0       0.02183630       0.01599363      -0.00170424       0.03135567
Au     -12.10292478     -16.23897393     -12.10292478        0       0.02557196      -0.01897592       0.00382079      -0.01897592
Au     -12.12053904     -14.16523962     -10.11245851        0       0.00093432       0.01490579      -0.00753947       0.01430821
Au     -10.11363689     -16.27165863     -10.11363689        0       0.02475748       0.01258153       0.03383189       0.01258153
Au     -10.11245851     -14.16523962     -12.12053904        0       0.00093432       0.01430821      -0.00753947       0.01490579
Au     -12.11914733     -16.24175508      -8.11466987        0       0.02224432      -0.00959280      -0.00036623       0.01967440
Au     -12.12474432     -14.16292328      -6.08972956        0      -0.00064537       0.01201682      -0.00093244       0.00165458
Au     -10.12544957     -16.24622267      -6.09101040        0       0.02239531       0.02303372       0.01366321       0.00934699
Au     -10.11588030     -14.18481613      -8.10445723        0      -0.00123253       0.01609405      -0.00126537       0.01654667
Au     -12.11935373     -16.21756165      -4.06564289        0       0.02246450      -0.01058740      -0.00675787       0.00187738
Au     -12.11839999     -14.15068420      -2.03114972        0      -0.00049924       0.00652782      -0.00748293      -0.00227563
Au     -10.12626249     -16.22945892      -2.03263633        0       0.02322874       0.02151685       0.01010547       0.00114082
Au     -10.11825873     -14.17083786      -4.05896628        0      -0.00179713       0.00966637      -0.01388114      -0.00451552
Au     -12.12631497     -10.11073327     -18.23118820        0       0.28289839      -0.00724304       0.00319458       0.04636230
Au     -10.11073327     -12.12631497     -18.23118820        0       0.28289839       0.00319458      -0.00724304       0.04636230
Au     -12.10292478     -12.10292478     -16.23897393        0       0.02557196      -0.01897592      -0.01897592       0.00382079
Au     -12.12053904     -10.11245851     -14.16523962        0       0.00093432       0.01490579       0.01430821      -0.00753947
Au     -10.11245851     -12.12053904     -14.16523962        0       0.00093432       0.01430821       0.01490579      -0.00753947
Au     -10.11363689     -10.11363689     -16.27165863        0       0.02475748       0.01258153       0.01258153       0.03383189
Au     -12.11526068     -12.11526068     -12.11526068        0       0.00531969      -0.01048651      -0.01048651      -0.01048651
Au     -12.13650616     -10.10593446     -10.10593446        0       0.00270793       0.01658664       0.01651507       0.01651507
Au     -10.10593446     -12.13650616     -10.10593446        0       0.00270793       0.01651507       0.01658664       0.01651507
Au     -10.10593446     -10.10593446     -12.13650616        0       0.00270793       0.01651507       0.01651507       0.01658664
Au     -12.12883008     -12.12883008      -8.09832419        0       0.00288429       0.00070477       0.00070477       0.00837009
Au     -12.14424281     -10.11082193      -6.07745380        0       0.00129893       0.01520919       0.01344253      -0.00194841
Au     -10.11082193     -12.14424281      -6.07745380        0       0.00129893       0.01344253       0.01520919      -0.00194841
Au     -10.10857542     -10.10857542      -8.08617368        0       0.00069797       0.01479263       0.01479263       0.00200235
Au     -12.12326907     -12.12326907      -4.05798767        0       0.00282247      -0.00873903      -0.00873903      -0.00576861
Au     -12.13493174     -10.10767689      -2.02814789        0       0.00138350       0.00373433       0.00634172      -0.00341304
Au     -10.10767689     -12.13493174      -2.02814789        0       0.00138350       0.00634172       0.00373433      -0.00341304
Au     -10.10941257     -10.10941257      -4.05054202        0       0.00035684       0.00542079       0.00542079      -0.00811206
Au     -12.13475348      -6.08857329     -18.18954515        0       0.28254372      -0.01093582       0.01460579       0.01546892
Au     -10.11688105      -8.09852009     -18.22317296        0       0.28286552       0.00011875       0.00984822       0.02472646
Au     -12.11914733      -8.11466987     -16.24175508        0       0.02224432      -0.00959280       0.01967440      -0.00036623
Au     -12.12474432      -6.08972956     -14.16292328        0      -0.00064537       0.01201682       0.00165458      -0.00093244
Au     -10.11588030      -8.10445723     -14.18481613        0      -0.00123253       0.01609405       0.01654667      -0.00126537
Au     -10.12544957      -6.09101040     -16.24622267        0       0.02239531       0.02303372       0.00934699       0.01366321
Au     -12.12883008      -8.09832419     -12.12883008        0       0.00288429       0.00070477       0.00837009       0.00070477
Au     -12.14424281      -6.07745380     -10.11082193        0       0.00129893       0.01520919      -0.00194841       0.01344253
Au     -10.10857542      -8.08617368     -10.10857542        0       0.00069797       0.01479263       0.00200235       0.01479263
Au     -10.11082193      -6.07745380     -12.14424281        0       0.00129893       0.01344253      -0.00194841       0.01520919
Au     -12.15303762      -8.09163378      -8.09163378        0       0.00102024       0.02356890       0.00372961       0.00372961
Au     -12.15463013      -6.07350567      -6.07350567        0       0.00053430       0.00544618      -0.00819300      -0.00819300
Au     -10.11633897      -8.08543430      -6.06575028        0       0.00026566       0.00558738      -0.00719953      -0.01299250
Au     -10.11633897      -6.06575028      -8.08543430        0       0.00026566       0.00558738      -0.01299250      -0.00719953
Au     -12.14887372      -8.09404093      -4.05203169        0       0.00060098       0.00653745      -0.00130050      -0.00728586
Au     -12.14523187      -6.07584868      -2.02621601        0       0.00046420      -0.00676108      -0.00659271      -0.00173264
Au     -10.11292689      -8.08628816      -2.02493327        0       0.00011078      -0.00302468      -0.00935668      -0.00272639
Au     -10.11903356      -6.06643028      -4.04579064        0       0.00016951      -0.00507141      -0.01297640      -0.00869798
Au     -12.13149488      -2.03355713     -18.16804582        0       0.28414738      -0.00918546       0.00697619       0.00876047
Au     -10.12069460      -4.06207465     -18.18425415        0       0.28410958      -0.00235663       0.01334846       0.01125241
Au     -12.11935373      -4.06564289     -16.21756165        0       0.02246450      -0.01058740       0.00187738      -0.00675787
Au     -12.11839999      -2.03114972     -14.15068420        0      -0.00049924       0.00652782      -0.00227563      -0.00748293
Au     -10.11825873      -4.05896628     -14.17083786        0      -0.00179713       0.00966637      -0.00451552      -0.01388114
Au     -10.12626249      -2.03263633     -16.22945892        0       0.02322874       0.02151685       0.00114082       0.01010547
Au     -12.12326907      -4.05798767     -12.12326907        0       0.00282247      -0.00873903      -0.00576861      -0.00873903
Au     -12.13493174      -2.02814789     -10.10767689        0       0.00138350       0.00373433      -0.00341304       0.00634172
Au     -10.10941257      -4.05054202     -10.10941257        0       0.00035684       0.00542079      -0.00811206       0.00542079
Au     -10.10767689      -2.02814789     -12.13493174        0       0.00138350       0.00634172      -0.00341304       0.00373433
Au     -12.14887372      -4.05203169      -8.09404093        0       0.00060098       0.00653745      -0.00728586      -0.00130050
Au     -12.14523187      -2.02621601      -6.07584868        0       0.00046420      -0.00676108      -0.00173264      -0.00659271
Au     -10.11903356      -4.04579064      -6.06643028        0       0.00016951      -0.00507141      -0.00869798      -0.01297640
Au     -10.11292689      -2.02493327      -8.08628816        0       0.00011078      -0.00302468      -0.00272639      -0.00935668
Au     -12.14410121      -4.05125458      -4.05125458        0       0.00061749      -0.01347235      -0.00595369      -0.00595369
Au     -12.13564693      -2.02676858      -2.02676858        0       0.00062650      -0.01668316       0.00143328       0.00143328
Au     -10.11622455      -4.04759037      -2.02424226        0       0.00006507      -0.01228540      -0.00350346       0.00108933
Au     -10.11622455      -2.02424226      -4.04759037        0       0.00006507      -0.01228540       0.00108933      -0.00350346
Au      -8.11230993     -18.00706827     -18.00706827        0       0.54203440       0.01318824       0.00759157       0.00759157
Au      -8.11151528     -18.16412937     -14.14677630        0       0.27673616       0.01145879      -0.01307916       0.00316444
Au      -6.09683979     -18.11852071     -16.14005939        0       0.28469102       0.01417747       0.01002030      -0.00829065
Au      -8.09852009     -18.22317296     -10.11688105        0       0.28286552       0.00984822       0.02472646       0.00011875
Au      -6.08857329     -18.18954515     -12.13475348        0       0.28254372       0.01460579       0.01546892      -0.01093582
Au      -8.10288170     -18.18001373      -6.08333277        0       0.28192202       0.00994453      -0.01227221       0.01688440
Au      -6.08333277     -18.18001373      -8.10288170        0       0.28192202       0.01688440      -0.01227221       0.00994453
Au      -8.10532738     -18.15352917      -2.03231814        0       0.28373832       0.01148610      -0.02156334       0.00947069
Au      -6.08648610     -18.13984894      -4.06135170        0       0.28312684       0.01906794      -0.02970233       0.01799019
Au      -8.11151528     -14.14677630     -18.16412937        0       0.27673616       0.01145879       0.00316444      -0.01307916
Au      -6.09683979     -16.14005939     -18.11852071        0       0.28469102       0.01417747      -0.00829065       0.01002030
Au      -8.12530231     -16.12874191     -16.12874191        0       0.06130791       0.02450671      -0.00889170      -0.00889170
Au      -8.11577528     -14.13620116     -14.13620116        0      -0.00112167       0.01655238       0.00043252       0.00043252
Au      -6.09919041     -16.19335089     -14.11605318        0       0.02002041       0.01090674       0.01346850      -0.00690259
Au      -6.09919041     -14.11605318     -16.19335089        0       0.02002041       0.01090674      -0.00690259       0.01346850
Au      -8.11466987     -16.24175508     -12.11914733        0       0.02224432       0.01967440      -0.00036623      -0.00959280
Au      -8.10445723     -14.18481613     -10.11588030        0      -0.00123253       0.01654667      -0.00126537       0.01609405
Au      -6.09101040     -16.24622267     -10.12544957        0       0.02239531       0.00934699       0.01366321       0.02303372
Au      -6.08972956     -14.16292328     -12.12474432        0      -0.00064537       0.00165458      -0.00093244       0.01201682
Au      -8.11159730     -16.25024647      -8.11159730        0       0.02182883       0.02523663      -0.00101185       0.02523663
Au      -8.10652022     -14.18726133      -6.08278938        0      -0.00231251       0.01242043       0.00506410      -0.00137684
Au      -6.09052871     -16.21920708      -6.09052871        0       0.02264792       0.01197070      -0.01379370       0.01197070
Au      -6.08278938     -14.18726133      -8.10652022        0      -0.00231251      -0.00137684       0.00506410       0.01242043