365
Lattice="40.7825 0.0 0.0 0.0 40.7825 0.0 0.0 0.0 40.7825" Properties=species:S:1:pos:R:3:spacegroup_kinds:I:1:energies:R:1:forces:R:3 energy=72.16984596339188 free_energy=72.16984596339188 stress="-7.106510694381041e-05 -9.761719631092743e-18 -8.576695316385978e-19 -9.761719631092743e-18 -7.106510694380906e-05 -3.0247581955498643e-18 -8.576695316385978e-19 -3.0247581955498643e-18 -7.106510694380948e-05" pbc="T T T"
Au      -7.81364883      -7.81364883      -7.81364883        0       0.78032454      -0.00552296      -0.00552296      -0.00552296
Au      -8.00088915      -5.97114080      -5.97114080        0       0.30737101      -0.02813007       0.02200378       0.02200378
Au      -5.97114080      -8.00088915      -5.97114080        0       0.30737101       0.02200378      -0.02813007       0.02200378
Au      -5.97114080      -5.97114080      -8.00088915        0       0.30737101       0.02200378       0.02200378      -0.02813007
Au      -7.89324634      -7.89324634      -3.99621729        0       0.53956016       0.00537905       0.00537905      -0.02087735
Au      -8.01874264      -6.02801780      -2.00689905        0       0.28259012      -0.02658799       0.00373400       0.01990964
Au      -6.02801780      -8.01874264      -2.00689905        0       0.28259012       0.00373400      -0.02658799       0.01990964
Au      -6.00485410      -6.00485410      -3.98646900        0       0.05988180       0.02137267       0.02137267       0.02322262
Au      -7.89324634      -3.99621729      -7.89324634        0       0.53956016       0.00537905      -0.02087735       0.00537905
Au      -8.01874264      -2.00689905      -6.02801780        0       0.28259012      -0.02658799       0.01990964       0.00373400
Au      -6.00485410      -3.98646900      -6.00485410        0       0.05988180       0.02137267       0.02322262       0.02137267
Au      -6.02801780      -2.00689905      -8.01874264        0       0.28259012       0.00373400       0.01990964      -0.02658799
Au      -8.04134932      -3.98470859      -3.98470859        0       0.27415901       0.01180987      -0.02625766      -0.02625766
Au      -8.08140420      -2.00177279      -2.00177279        0       0.27726850      -0.00211003      -0.00410550      -0.00410550
Au      -6.07891786      -3.99898820      -1.99741261        0       0.02321556      -0.00286593      -0.00045964       0.00881675
Au      -6.07891786      -1.99741261      -3.99898820        0       0.02321556      -0.00286593       0.00881675      -0.00045964
Au      -3.99621729      -7.89324634      -7.89324634        0       0.53956016      -0.02087735       0.00537905       0.00537905
Au      -3.98646900      -6.00485410      -6.00485410        0       0.05988180       0.02322262       0.02137267       0.02137267
Au      -2.00689905      -8.01874264      -6.02801780        0       0.28259012       0.01990964      -0.02658799       0.00373400
Au      -2.00689905      -6.02801780      -8.01874264        0       0.28259012       0.01990964       0.00373400      -0.02658799
Au      -3.98470859      -8.04134932      -3.98470859        0       0.27415901      -0.02625766       0.01180987      -0.02625766
Au      -3.99898820      -6.07891786      -1.99741261        0       0.02321556      -0.00045964      -0.00286593       0.00881675
Au      -2.00177279      -8.08140420      -2.00177279        0       0.27726850      -0.00410550      -0.00211003      -0.00410550
Au      -1.99741261      -6.07891786      -3.99898820        0       0.02321556       0.00881675      -0.00286593      -0.00045964
Au      -3.98470859      -3.98470859      -8.04134932        0       0.27415901      -0.02625766      -0.02625766       0.01180987
Au      -3.99898820      -1.99741261      -6.07891786        0       0.02321556      -0.00045964       0.00881675      -0.00286593
Au      -1.99741261      -3.99898820      -6.07891786        0       0.02321556       0.00881675      -0.00045964      -0.00286593
Au      -2.00177279      -2.00177279      -8.08140420        0       0.27726850      -0.00410550      -0.00410550      -0.00211003
Au      -3.99639271      -3.99639271      -3.99639271        0      -0.00026841       0.01881018       0.01881018       0.01881018
Au      -4.03194359      -1.99922388      -1.99922388        0       0.00257241      -0.02612915      -0.00932588      -0.00932588
Au      -1.99922388      -4.03194359      -1.99922388        0       0.00257241      -0.00932588      -0.02612915      -0.00932588
Au      -1.99922388      -1.99922388      -4.03194359        0       0.00257241      -0.00932588      -0.00932588      -0.02612915
Au      -7.89453477      -7.89453477      -0.00000000        0       0.54135979      -0.00826285      -0.00826285       0.00000000
Au      -8.01874264      -6.02801780       2.00689905        0       0.28259012      -0.02658799       0.00373400      -0.01990964
Au      -6.02801780      -8.01874264       2.00689905        0       0.28259012       0.00373400      -0.02658799      -0.01990964
Au      -6.01550477      -6.01550477       0.00000000        0       0.06249542      -0.00930200      -0.00930200      -0.00000000
Au      -7.89324634      -7.89324634       3.99621729        0       0.53956016       0.00537905       0.00537905       0.02087735
Au      -8.00088915      -5.97114080       5.97114080        0       0.30737101      -0.02813007       0.02200378      -0.02200378
Au      -5.97114080      -8.00088915       5.97114080        0       0.30737101       0.02200378      -0.02813007      -0.02200378
Au      -6.00485410      -6.00485410       3.98646900        0       0.05988180       0.02137267       0.02137267      -0.02322262
Au      -7.81364883      -7.81364883       7.81364883        0       0.78032454      -0.00552296      -0.00552296       0.00552296
Au      -5.97114080      -5.97114080       8.00088915        0       0.30737101       0.02200378       0.02200378       0.02813007
Au      -8.05321431      -4.01513624      -0.00000000        0       0.27536002      -0.01071105      -0.02285118       0.00000000
Au      -8.08140420      -2.00177279       2.00177279        0       0.27726850      -0.00211003      -0.00410550       0.00410550
Au      -6.07891786      -3.99898820       1.99741261        0       0.02321556      -0.00286593      -0.00045964      -0.00881675
Au      -6.10928276      -2.00538813       0.00000000        0       0.02478988      -0.01227445       0.01068154       0.00000000
Au      -8.04134932      -3.98470859       3.98470859        0       0.27415901       0.01180987      -0.02625766       0.02625766
Au      -8.01874264      -2.00689905       6.02801780        0       0.28259012      -0.02658799       0.01990964      -0.00373400
Au      -6.00485410      -3.98646900       6.00485410        0       0.05988180       0.02137267       0.02322262      -0.02137267
Au      -6.07891786      -1.99741261       3.99898820        0       0.02321556      -0.00286593       0.00881675       0.00045964
Au      -7.89324634      -3.99621729       7.89324634        0       0.53956016       0.00537905      -0.02087735      -0.00537905
Au      -6.02801780      -2.00689905       8.01874264        0       0.28259012       0.00373400       0.01990964       0.02658799
Au      -4.01513624      -8.05321431      -0.00000000        0       0.27536002      -0.02285118      -0.01071105       0.00000000
Au      -3.99898820      -6.07891786       1.99741261        0       0.02321556      -0.00045964      -0.00286593      -0.00881675
Au      -2.00177279      -8.08140420       2.00177279        0       0.27726850      -0.00410550      -0.00211003       0.00410550
Au      -2.00538813      -6.10928276       0.00000000        0       0.02478988       0.01068154      -0.01227445      -0.00000000
Au      -3.98470859      -8.04134932       3.98470859        0       0.27415901      -0.02625766       0.01180987       0.02625766
Au      -3.98646900      -6.00485410       6.00485410        0       0.05988180       0.02322262       0.02137267      -0.02137267
Au      -2.00689905      -8.01874264       6.02801780        0       0.28259012       0.01990964      -0.02658799      -0.00373400
Au      -1.99741261      -6.07891786       3.99898820        0       0.02321556       0.00881675      -0.00286593       0.00045964
Au      -3.99621729      -7.89324634       7.89324634        0       0.53956016      -0.02087735       0.00537905      -0.00537905
Au      -2.00689905      -6.02801780       8.01874264        0       0.28259012       0.01990964       0.00373400       0.02658799
Au      -4.02026168      -4.02026168      -0.00000000        0      -0.00110135       0.01073758       0.01073758       0.00000000
Au      -4.03194359      -1.99922388       1.99922388        0       0.00257241      -0.02612915      -0.00932588       0.00932588
Au      -1.99922388      -4.03194359       1.99922388        0       0.00257241      -0.00932588      -0.02612915       0.00932588
Au      -2.01028900      -2.01028900       0.00000000        0       0.00718260      -0.01582174      -0.01582174      -0.00000000
Au      -3.99639271      -3.99639271       3.99639271        0      -0.00026841       0.01881018       0.01881018      -0.01881018
Au      -3.99898820      -1.99741261       6.07891786        0       0.02321556      -0.00045964       0.00881675       0.00286593
Au      -1.99741261      -3.99898820       6.07891786        0       0.02321556       0.00881675      -0.00045964       0.00286593
Au      -1.99922388      -1.99922388       4.03194359        0       0.00257241      -0.00932588      -0.00932588       0.02612915
Au      -3.98470859      -3.98470859       8.04134932        0       0.27415901      -0.02625766      -0.02625766      -0.01180987
Au      -2.00177279      -2.00177279       8.08140420        0       0.27726850      -0.00410550      -0.00410550       0.00211003
Au      -7.89453477       0.00000000      -7.89453477        0       0.54135979      -0.00826285       0.00000000      -0.00826285
Au      -8.01874264       2.00689905      -6.02801780        0       0.28259012      -0.02658799      -0.01990964       0.00373400
Au      -6.01550477       0.00000000      -6.01550477        0       0.06249542      -0.00930200      -0.00000000      -0.00930200
Au      -6.02801780       2.00689905      -8.01874264        0       0.28259012       0.00373400      -0.01990964      -0.02658799
Au      -8.05321431       0.00000000      -4.01513624        0       0.27536002      -0.01071105       0.00000000      -0.02285118
Au      -8.08140420       2.00177279      -2.00177279        0       0.27726850      -0.00211003       0.00410550      -0.00410550
Au      -6.10928276      -0.00000000      -2.00538813        0       0.02478988      -0.01227445       0.00000000       0.01068154
Au      -6.07891786       1.99741261      -3.99898820        0       0.02321556      -0.00286593      -0.00881675      -0.00045964
Au      -7.89324634       3.99621729      -7.89324634        0       0.53956016       0.00537905       0.02087735       0.00537905
Au      -8.00088915       5.97114080      -5.97114080        0       0.30737101      -0.02813007      -0.02200378       0.02200378
Au      -6.00485410       3.98646900      -6.00485410        0       0.05988180       0.02137267      -0.02322262       0.02137267
Au      -5.97114080       5.97114080      -8.00088915        0       0.30737101       0.02200378      -0.02200378      -0.02813007
Au      -8.04134932       3.98470859      -3.98470859        0       0.27415901       0.01180987       0.02625766      -0.02625766
Au      -8.01874264       6.02801780      -2.00689905        0       0.28259012      -0.02658799      -0.00373400       0.01990964
Au      -6.07891786       3.99898820      -1.99741261        0       0.02321556      -0.00286593       0.00045964       0.00881675
Au      -6.00485410       6.00485410      -3.98646900        0       0.05988180       0.02137267      -0.02137267       0.02322262
Au      -7.81364883       7.81364883      -7.81364883        0       0.78032454      -0.00552296       0.00552296      -0.00552296
Au      -5.97114080       8.00088915      -5.97114080        0       0.30737101       0.02200378       0.02813007       0.02200378
Au      -7.89324634       7.89324634      -3.99621729        0       0.53956016       0.00537905      -0.00537905      -0.02087735
Au      -6.02801780       8.01874264      -2.00689905        0       0.28259012       0.00373400       0.02658799       0.01990964
Au      -4.01513624      -0.00000000      -8.05321431        0       0.27536002      -0.02285118       0.00000000      -0.01071105
Au      -3.99898820       1.99741261      -6.07891786        0       0.02321556      -0.00045964      -0.00881675      -0.00286593
Au      -2.00538813      -0.00000000      -6.10928276        0       0.02478988       0.01068154       0.00000000      -0.01227445
Au      -2.00177279       2.00177279      -8.08140420        0       0.27726850      -0.00410550       0.00410550      -0.00211003
Au      -4.02026168      -0.00000000      -4.02026168        0      -0.00110135       0.01073758       0.00000000       0.01073758
Au      -4.03194359       1.99922388      -1.99922388        0       0.00257241      -0.02612915       0.00932588      -0.00932588
Au      -2.01028900      -0.00000000      -2.01028900        0       0.00718260      -0.01582174       0.00000000      -0.01582174
Au      -1.99922388       1.99922388      -4.03194359        0       0.00257241      -0.00932588       0.00932588      -0.02612915
Au      -3.98470859       3.98470859      -8.04134932        0       0.27415901      -0.02625766       0.02625766       0.01180987
Au      -3.98646900       6.00485410      -6.00485410        0       0.05988180       0.02322262      -0.02137267       0.02137267
Au      -1.99741261       3.99898820      -6.07891786        0       0.02321556       0.00881675       0.00045964      -0.00286593
Au      -2.00689905       6.02801780      -8.01874264        0       0.28259012       0.01990964      -0.00373400      -0.02658799
Au      -3.99639271       3.99639271      -3.99639271        0      -0.00026841       0.01881018      -0.01881018       0.01881018
Au      -3.99898820       6.07891786      -1.99741261        0       0.02321556      -0.00045964       0.00286593       0.00881675
Au      -1.99922388       4.03194359      -1.99922388        0       0.00257241      -0.00932588       0.02612915      -0.00932588
Au      -1.99741261       6.07891786      -3.99898820        0       0.02321556       0.00881675       0.00286593      -0.00045964
Au      -3.99621729       7.89324634      -7.89324634        0       0.53956016      -0.02087735      -0.00537905       0.00537905
Au      -2.00689905       8.01874264      -6.02801780        0       0.28259012       0.01990964       0.02658799       0.00373400
Au      -3.98470859       8.04134932      -3.98470859        0       0.27415901      -0.02625766      -0.01180987      -0.02625766
Au      -2.00177279       8.08140420      -2.00177279        0       0.27726850      -0.00410550       0.00211003      -0.00410550
Au      -8.08009296       0.00000000       0.00000000        0       0.27501479      -0.04600787       0.00000000      -0.00000000
Au      -8.08140420       2.00177279       2.00177279        0       0.27726850      -0.00211003       0.00410550       0.00410550
Au      -6.10928276       0.00000000       2.00538813        0       0.02478988      -0.01227445       0.00000000      -0.01068154
Au      -6.10928276       2.00538813       0.00000000        0       0.02478988      -0.01227445      -0.01068154      -0.00000000
Au      -8.05321431       0.00000000       4.01513624        0       0.27536002      -0.01071105      -0.00000000       0.02285118
Au      -8.01874264       2.00689905       6.02801780        0       0.28259012      -0.02658799      -0.01990964      -0.00373400
Au      -6.01550477       0.00000000       6.01550477        0       0.06249542      -0.00930200      -0.00000000       0.00930200
Au      -6.07891786       1.99741261       3.99898820        0       0.02321556      -0.00286593      -0.00881675       0.00045964
Au      -7.89453477      -0.00000000       7.89453477        0       0.54135979      -0.00826285       0.00000000       0.00826285
Au      -6.02801780       2.00689905       8.01874264        0       0.28259012       0.00373400      -0.01990964       0.02658799
Au      -8.05321431       4.01513624       0.00000000        0       0.27536002      -0.01071105       0.02285118      -0.00000000
Au      -8.01874264       6.02801780       2.00689905        0       0.28259012      -0.02658799      -0.00373400      -0.01990964
Au      -6.07891786       3.99898820       1.99741261        0       0.02321556      -0.00286593       0.00045964      -0.00881675
Au      -6.01550477       6.01550477       0.00000000        0       0.06249542      -0.00930200       0.00930200      -0.00000000
Au      -8.04134932       3.98470859       3.98470859        0       0.27415901       0.01180987       0.02625766       0.02625766
Au      -8.00088915       5.97114080       5.97114080        0       0.30737101      -0.02813007      -0.02200378      -0.02200378
Au      -6.00485410       3.98646900       6.00485410        0       0.05988180       0.02137267      -0.02322262      -0.02137267
Au      -6.00485410       6.00485410       3.98646900        0       0.05988180       0.02137267      -0.02137267      -0.02322262
Au      -7.89324634       3.99621729       7.89324634        0       0.53956016       0.00537905       0.02087735      -0.00537905
Au      -5.97114080       5.97114080       8.00088915        0       0.30737101       0.02200378      -0.02200378       0.02813007
Au      -7.89453477       7.89453477      -0.00000000        0       0.54135979      -0.00826285       0.00826285       0.00000000
Au      -6.02801780       8.01874264       2.00689905        0       0.28259012       0.00373400       0.02658799      -0.01990964
Au      -7.89324634       7.89324634       3.99621729        0       0.53956016       0.00537905      -0.00537905       0.02087735
Au      -5.97114080       8.00088915       5.97114080        0       0.30737101       0.02200378       0.02813007      -0.02200378
Au      -7.81364883       7.81364883       7.81364883        0       0.78032454      -0.00552296       0.00552296       0.00552296
Au      -4.05634566       0.00000000      -0.00000000        0       0.00138314       0.00642839       0.00000000      -0.00000000
Au      -4.03194359       1.99922388       1.99922388        0       0.00257241      -0.02612915       0.00932588       0.00932588
Au      -2.01028900      -0.00000000       2.01028900        0       0.00718260      -0.01582174       0.00000000       0.01582174
Au      -2.01028900       2.01028900      -0.00000000        0       0.00718260      -0.01582174       0.01582174       0.00000000
Au      -4.02026168      -0.00000000       4.02026168        0      -0.00110135       0.01073758       0.00000000      -0.01073758
Au      -3.99898820       1.99741261       6.07891786        0       0.02321556      -0.00045964      -0.00881675       0.00286593
Au      -2.00538813       0.00000000       6.10928276        0       0.02478988       0.01068154      -0.00000000       0.01227445
Au      -1.99922388       1.99922388       4.03194359        0       0.00257241      -0.00932588       0.00932588       0.02612915
Au      -4.01513624       0.00000000       8.05321431        0       0.27536002      -0.02285118      -0.00000000       0.01071105
Au      -2.00177279       2.00177279       8.08140420        0       0.27726850      -0.00410550       0.00410550       0.00211003
Au      -4.02026168       4.02026168       0.00000000        0      -0.00110135       0.01073758      -0.01073758       0.00000000
Au      -3.99898820       6.07891786       1.99741261        0       0.02321556      -0.00045964       0.00286593      -0.00881675
Au      -1.99922388       4.03194359       1.99922388        0       0.00257241      -0.00932588       0.02612915       0.00932588
Au      -2.00538813       6.10928276       0.00000000        0       0.02478988       0.01068154       0.01227445       0.00000000
Au      -3.99639271       3.99639271       3.99639271        0      -0.00026841       0.01881018      -0.01881018      -0.01881018
Au      -3.98646900       6.00485410       6.00485410        0       0.05988180       0.02322262      -0.02137267      -0.02137267
Au      -1.99741261       3.99898820       6.07891786        0       0.02321556       0.00881675       0.00045964       0.00286593
Au      -1.99741261       6.07891786       3.99898820        0       0.02321556       0.00881675       0.00286593       0.00045964
Au      -3.98470859       3.98470859       8.04134932        0       0.27415901      -0.02625766       0.02625766      -0.01180987
Au      -2.00689905       6.02801780       8.01874264        0       0.28259012       0.01990964      -0.00373400       0.02658799
Au      -4.01513624       8.05321431       0.00000000        0       0.27536002      -0.02285118       0.01071105       0.00000000
Au      -2.00177279       8.08140420       2.00177279        0       0.27726850      -0.00410550       0.00211003       0.00410550
Au      -3.98470859       8.04134932       3.98470859        0       0.27415901      -0.02625766      -0.01180987       0.02625766
Au      -2.00689905       8.01874264       6.02801780        0       0.28259012       0.01990964       0.02658799      -0.00373400
Au      -3.99621729       7.89324634       7.89324634        0       0.53956016      -0.02087735      -0.00537905      -0.00537905
Au       0.00000000      -7.89453477      -7.89453477        0       0.54135979       0.00000000      -0.00826285      -0.00826285
Au      -0.00000000      -6.01550477      -6.01550477        0       0.06249542       0.00000000      -0.00930200      -0.00930200
Au       2.00689905      -8.01874264      -6.02801780        0       0.28259012      -0.01990964      -0.02658799       0.00373400
Au       2.00689905      -6.02801780      -8.01874264        0       0.28259012      -0.01990964       0.00373400      -0.02658799
Au       0.00000000      -8.05321431      -4.01513624        0       0.27536002      -0.00000000      -0.01071105      -0.02285118
Au       0.00000000      -6.10928276      -2.00538813        0       0.02478988       0.00000000      -0.01227445       0.01068154
Au       2.00177279      -8.08140420      -2.00177279        0       0.27726850       0.00410550      -0.00211003      -0.00410550
Au       1.99741261      -6.07891786      -3.99898820        0       0.02321556      -0.00881675      -0.00286593      -0.00045964
Au       0.00000000      -4.01513624      -8.05321431        0       0.27536002       0.00000000      -0.02285118      -0.01071105
Au      -0.00000000      -2.00538813      -6.10928276        0       0.02478988       0.00000000       0.01068154      -0.01227445
Au       1.99741261      -3.99898820      -6.07891786        0       0.02321556      -0.00881675      -0.00045964      -0.00286593
Au       2.00177279      -2.00177279      -8.08140420        0       0.27726850       0.00410550      -0.00410550      -0.00211003
Au      -0.00000000      -4.02026168      -4.02026168        0      -0.00110135       0.00000000       0.01073758       0.01073758
Au       0.00000000      -2.01028900      -2.01028900        0       0.00718260      -0.00000000      -0.01582174      -0.01582174
Au       1.99922388      -4.03194359      -1.99922388        0       0.00257241       0.00932588      -0.02612915      -0.00932588
Au       1.99922388      -1.99922388      -4.03194359        0       0.00257241       0.00932588      -0.00932588      -0.02612915
Au       3.99621729      -7.89324634      -7.89324634        0       0.53956016       0.02087735       0.00537905       0.00537905
Au       3.98646900      -6.00485410      -6.00485410        0       0.05988180      -0.02322262       0.02137267       0.02137267
Au       5.97114080      -8.00088915      -5.97114080        0       0.30737101      -0.02200378      -0.02813007       0.02200378
Au       5.97114080      -5.97114080      -8.00088915        0       0.30737101      -0.02200378       0.02200378      -0.02813007
Au       3.98470859      -8.04134932      -3.98470859        0       0.27415901       0.02625766       0.01180987      -0.02625766
Au       3.99898820      -6.07891786      -1.99741261        0       0.02321556       0.00045964      -0.00286593       0.00881675
Au       6.02801780      -8.01874264      -2.00689905        0       0.28259012      -0.00373400      -0.02658799       0.01990964
Au       6.00485410      -6.00485410      -3.98646900        0       0.05988180      -0.02137267       0.02137267       0.02322262
Au       3.98470859      -3.98470859      -8.04134932        0       0.27415901       0.02625766      -0.02625766       0.01180987
Au       3.99898820      -1.99741261      -6.07891786        0       0.02321556       0.00045964       0.00881675      -0.00286593
Au       6.00485410      -3.98646900      -6.00485410        0       0.05988180      -0.02137267       0.02322262       0.02137267
Au       6.02801780      -2.00689905      -8.01874264        0       0.28259012      -0.00373400       0.01990964      -0.02658799
Au       3.99639271      -3.99639271      -3.99639271        0      -0.00026841      -0.01881018       0.01881018       0.01881018
Au       4.03194359      -1.99922388      -1.99922388        0       0.00257241       0.02612915      -0.00932588      -0.00932588
Au       6.07891786      -3.99898820      -1.99741261        0       0.02321556       0.00286593      -0.00045964       0.00881675
Au       6.07891786      -1.99741261      -3.99898820        0       0.02321556       0.00286593       0.00881675      -0.00045964
Au       7.81364883      -7.81364883      -7.81364883        0       0.78032454       0.00552296      -0.00552296      -0.00552296
Au       8.00088915      -5.97114080      -5.97114080        0       0.30737101       0.02813007       0.02200378       0.02200378
Au       7.89324634      -7.89324634      -3.99621729        0       0.53956016      -0.00537905       0.00537905      -0.02087735
Au       8.01874264      -6.02801780      -2.00689905        0       0.28259012       0.02658799       0.00373400       0.01990964
Au       7.89324634      -3.99621729      -7.89324634        0       0.53956016      -0.00537905      -0.02087735       0.00537905
Au       8.01874264      -2.00689905      -6.02801780        0       0.28259012       0.02658799       0.01990964       0.00373400
Au       8.04134932      -3.98470859      -3.98470859        0       0.27415901      -0.01180987      -0.02625766      -0.02625766
Au       8.08140420      -2.00177279      -2.00177279        0       0.27726850       0.00211003      -0.00410550      -0.00410550
Au      -0.00000000      -8.08009296      -0.00000000        0       0.27501479       0.00000000      -0.04600787       0.00000000
Au      -0.00000000      -6.10928276       2.00538813        0       0.02478988       0.00000000      -0.01227445      -0.01068154
Au       2.00177279      -8.08140420       2.00177279        0       0.27726850       0.00410550      -0.00211003       0.00410550
Au       2.00538813      -6.10928276       0.00000000        0       0.02478988      -0.01068154      -0.01227445      -0.00000000
Au       0.00000000      -8.05321431       4.01513624        0       0.27536002       0.00000000      -0.01071105       0.02285118
Au       0.00000000      -6.01550477       6.01550477        0       0.06249542       0.00000000      -0.00930200       0.00930200
Au       2.00689905      -8.01874264       6.02801780        0       0.28259012      -0.01990964      -0.02658799      -0.00373400
Au       1.99741261      -6.07891786       3.99898820        0       0.02321556      -0.00881675      -0.00286593       0.00045964
Au      -0.00000000      -7.89453477       7.89453477        0       0.54135979       0.00000000      -0.00826285       0.00826285
Au       2.00689905      -6.02801780       8.01874264        0       0.28259012      -0.01990964       0.00373400       0.02658799
Au      -0.00000000      -4.05634566      -0.00000000        0       0.00138314       0.00000000       0.00642839       0.00000000
Au      -0.00000000      -2.01028900       2.01028900        0       0.00718260       0.00000000      -0.01582174       0.01582174
Au       1.99922388      -4.03194359       1.99922388        0       0.00257241       0.00932588      -0.02612915       0.00932588
Au       2.01028900      -2.01028900       0.00000000        0       0.00718260       0.01582174      -0.01582174      -0.00000000
Au      -0.00000000      -4.02026168       4.02026168        0      -0.00110135       0.00000000       0.01073758      -0.01073758
Au       0.00000000      -2.00538813       6.10928276        0       0.02478988       0.00000000       0.01068154       0.01227445
Au       1.99741261      -3.99898820       6.07891786        0       0.02321556      -0.00881675      -0.00045964       0.00286593
Au       1.99922388      -1.99922388       4.03194359        0       0.00257241       0.00932588      -0.00932588       0.02612915
Au      -0.00000000      -4.01513624       8.05321431        0       0.27536002      -0.00000000      -0.02285118       0.01071105
Au       2.00177279      -2.00177279       8.08140420        0       0.27726850       0.00410550      -0.00410550       0.00211003
Au       4.01513624      -8.05321431      -0.00000000        0       0.27536002       0.02285118      -0.01071105       0.00000000
Au       3.99898820      -6.07891786       1.99741261        0       0.02321556       0.00045964      -0.00286593      -0.00881675
Au       6.02801780      -8.01874264       2.00689905        0       0.28259012      -0.00373400      -0.02658799      -0.01990964