63
Lattice="32.626 0.0 0.0 0.0 32.626 0.0 0.0 0.0 32.626" Properties=species:S:1:pos:R:3:spacegroup_kinds:I:1:energies:R:1:forces:R:3 energy=22.485893919417222 free_energy=22.485893919417222 stress="-1.2255619133813744e-05 -2.442373576797659e-18 2.1994149487392533e-18 -2.442373576797659e-18 -1.2255619133813642e-05 -6.521521068936158e-19 2.1994149487392533e-18 -6.521521068936158e-19 -1.2255619133814665e-05" pbc="T T T"
Au      -3.82711803      -3.82711803      -3.82711803        0       0.78322935       0.01958677       0.01958677       0.01958677
Au      -4.01233700      -1.98241775      -1.98241775        0       0.30743319      -0.01861074      -0.00053826      -0.00053826
Au      -1.98241775      -4.01233700      -1.98241775        0       0.30743319      -0.00053826      -0.01861074      -0.00053826
Au      -1.98241775      -1.98241775      -4.01233700        0       0.30743319      -0.00053826      -0.00053826      -0.01861074
Au      -3.88824950      -3.88824950      -0.00000000        0       0.53762702      -0.00328213      -0.00328213      -0.00000000
Au      -4.01233700      -1.98241775       1.98241775        0       0.30743319      -0.01861074      -0.00053826       0.00053826
Au      -1.98241775      -4.01233700       1.98241775        0       0.30743319      -0.00053826      -0.01861074       0.00053826
Au      -2.00465483      -2.00465483      -0.00000000        0       0.06627114      -0.01824121      -0.01824121      -0.00000000
Au      -3.82711803      -3.82711803       3.82711803        0       0.78322935       0.01958677       0.01958677      -0.01958677
Au      -1.98241775      -1.98241775       4.01233700        0       0.30743319      -0.00053826      -0.00053826       0.01861074
Au      -3.88824950       0.00000000      -3.88824950        0       0.53762702      -0.00328213       0.00000000      -0.00328213
Au      -4.01233700       1.98241775      -1.98241775        0       0.30743319      -0.01861074       0.00053826      -0.00053826
Au      -2.00465483      -0.00000000      -2.00465483        0       0.06627114      -0.01824121       0.00000000      -0.01824121
Au      -1.98241775       1.98241775      -4.01233700        0       0.30743319      -0.00053826       0.00053826      -0.01861074
Au      -3.82711803       3.82711803      -3.82711803        0       0.78322935       0.01958677      -0.01958677       0.01958677
Au      -1.98241775       4.01233700      -1.98241775        0       0.30743319      -0.00053826       0.01861074      -0.00053826
Au      -4.01862243       0.00000000      -0.00000000        0       0.26391482      -0.00201884      -0.00000000      -0.00000000
Au      -4.01233700       1.98241775       1.98241775        0       0.30743319      -0.01861074       0.00053826       0.00053826
Au      -2.00465483       0.00000000       2.00465483        0       0.06627114      -0.01824121       0.00000000       0.01824121
Au      -2.00465483       2.00465483      -0.00000000        0       0.06627114      -0.01824121       0.01824121       0.00000000
Au      -3.88824950      -0.00000000       3.88824950        0       0.53762702      -0.00328213       0.00000000       0.00328213
Au      -1.98241775       1.98241775       4.01233700        0       0.30743319      -0.00053826       0.00053826       0.01861074
Au      -3.88824950       3.88824950       0.00000000        0       0.53762702      -0.00328213       0.00328213      -0.00000000
Au      -1.98241775       4.01233700       1.98241775        0       0.30743319      -0.00053826       0.01861074       0.00053826
Au      -3.82711803       3.82711803       3.82711803        0       0.78322935       0.01958677      -0.01958677      -0.01958677
Au       0.00000000      -3.88824950      -3.88824950        0       0.53762702      -0.00000000      -0.00328213      -0.00328213
Au      -0.00000000      -2.00465483      -2.00465483        0       0.06627114       0.00000000      -0.01824121      -0.01824121
Au       1.98241775      -4.01233700      -1.98241775        0       0.30743319       0.00053826      -0.01861074      -0.00053826
Au       1.98241775      -1.98241775      -4.01233700        0       0.30743319       0.00053826      -0.00053826      -0.01861074
Au       3.82711803      -3.82711803      -3.82711803        0       0.78322935      -0.01958677       0.01958677       0.01958677
Au       4.01233700      -1.98241775      -1.98241775        0       0.30743319       0.01861074      -0.00053826      -0.00053826
Au       0.00000000      -4.01862243      -0.00000000        0       0.26391482      -0.00000000      -0.00201884      -0.00000000
Au      -0.00000000      -2.00465483       2.00465483        0       0.06627114       0.00000000      -0.01824121       0.01824121
Au       1.98241775      -4.01233700       1.98241775        0       0.30743319       0.00053826      -0.01861074       0.00053826
Au       2.00465483      -2.00465483       0.00000000        0       0.06627114       0.01824121      -0.01824121      -0.00000000
Au      -0.00000000      -3.88824950       3.88824950        0       0.53762702       0.00000000      -0.00328213       0.00328213
Au       1.98241775      -1.98241775       4.01233700        0       0.30743319       0.00053826      -0.00053826       0.01861074
Au       3.88824950      -3.88824950      -0.00000000        0       0.53762702       0.00328213      -0.00328213      -0.00000000
Au       4.01233700      -1.98241775       1.98241775        0       0.30743319       0.01861074      -0.00053826       0.00053826
Au       3.82711803      -3.82711803       3.82711803        0       0.78322935      -0.01958677       0.01958677      -0.01958677
Au       0.00000000      -0.00000000      -4.01862243        0       0.26391482      -0.00000000       0.00000000      -0.00201884
Au      -0.00000000       2.00465483      -2.00465483        0       0.06627114       0.00000000       0.01824121      -0.01824121
Au       2.00465483       0.00000000      -2.00465483        0       0.06627114       0.01824121      -0.00000000      -0.01824121
Au       1.98241775       1.98241775      -4.01233700        0       0.30743319       0.00053826       0.00053826      -0.01861074
Au       0.00000000       3.88824950      -3.88824950        0       0.53762702      -0.00000000       0.00328213      -0.00328213
Au       1.98241775       4.01233700      -1.98241775        0       0.30743319       0.00053826       0.01861074      -0.00053826
Au       3.88824950       0.00000000      -3.88824950        0       0.53762702       0.00328213      -0.00000000      -0.00328213
Au       4.01233700       1.98241775      -1.98241775        0       0.30743319       0.01861074       0.00053826      -0.00053826
Au       3.82711803       3.82711803      -3.82711803        0       0.78322935      -0.01958677      -0.01958677       0.01958677
Au      -0.00000000      -0.00000000      -0.00000000        0       0.01139575       0.00000000       0.00000000      -0.00000000
Au      -0.00000000       2.00465483       2.00465483        0       0.06627114      -0.00000000       0.01824121       0.01824121
Au       2.00465483      -0.00000000       2.00465483        0       0.06627114       0.01824121       0.00000000       0.01824121
Au       2.00465483       2.00465483       0.00000000        0       0.06627114       0.01824121       0.01824121      -0.00000000
Au      -0.00000000      -0.00000000       4.01862243        0       0.26391482      -0.00000000      -0.00000000       0.00201884
Au       1.98241775       1.98241775       4.01233700        0       0.30743319       0.00053826       0.00053826       0.01861074
Au      -0.00000000       4.01862243      -0.00000000        0       0.26391482       0.00000000       0.00201884       0.00000000
Au       1.98241775       4.01233700       1.98241775        0       0.30743319       0.00053826       0.01861074       0.00053826
Au       0.00000000       3.88824950       3.88824950        0       0.53762702      -0.00000000       0.00328213       0.00328213
Au       4.01862243      -0.00000000       0.00000000        0       0.26391482       0.00201884       0.00000000      -0.00000000
Au       4.01233700       1.98241775       1.98241775        0       0.30743319       0.01861074       0.00053826       0.00053826
Au       3.88824950      -0.00000000       3.88824950        0       0.53762702       0.00328213       0.00000000       0.00328213
Au       3.88824950       3.88824950      -0.00000000        0       0.53762702       0.00328213       0.00328213       0.00000000
Au       3.82711803       3.82711803       3.82711803        0       0.78322935      -0.01958677      -0.01958677      -0.01958677
