1687
Lattice="81.565 0.0 0.0 0.0 81.565 0.0 0.0 0.0 81.565" Properties=species:S:1:pos:R:3:spacegroup_kinds:I:1:energies:R:1:forces:R:3 energy=199.83353340071034 free_energy=199.83353340071034 stress="-1.3555351005334261e-05 -1.445353205941727e-17 1.1702933494686992e-18 -1.445353205941727e-17 -1.3555351005334444e-05 -1.8669452471856435e-18 1.1702933494686992e-18 -1.8669452471856435e-18 -1.3555351005334385e-05" pbc="T T T"
Au     -13.91329653     -13.91329653     -12.01778435        0       0.54258325      -0.00204664      -0.00204664       0.01128394
Au     -13.93705971     -13.93705971      -8.04687058        0       0.54073792       0.00357519       0.00357519       0.00255205
Au     -13.94586479     -13.94586479      -4.02212214        0       0.54268457       0.01224136       0.01224136      -0.00341491
Au     -13.91329653     -12.01778435     -13.91329653        0       0.54258325      -0.00204664       0.01128394      -0.00204664
Au     -14.04940838     -12.04813328     -10.02913270        0       0.28094699       0.00378980       0.00709994       0.01418702
Au     -14.04940838     -10.02913270     -12.04813328        0       0.28094699       0.00378980       0.01418702       0.00709994
Au     -14.07222141     -12.08295031      -6.03217936        0       0.28393084       0.01413840       0.00138616      -0.00824606
Au     -14.08658923     -10.05750719      -8.03631269        0       0.27647277      -0.01130469       0.01232871       0.00419490
Au     -14.05899823     -12.07721242      -2.01434966        0       0.28291427      -0.01390518      -0.00194872      -0.00600890
Au     -14.09886719     -10.07722741      -4.02627506        0       0.27730446       0.00565757       0.01135962       0.00078726
Au     -13.93705971      -8.04687058     -13.93705971        0       0.54073792       0.00357519       0.00255205       0.00357519
Au     -14.08658923      -8.03631269     -10.05750719        0       0.27647277      -0.01130469       0.00419490       0.01232871
Au     -14.07222141      -6.03217936     -12.08295031        0       0.28393084       0.01413840      -0.00824606       0.00138616
Au     -14.12693508      -8.05193785      -6.02969546        0       0.28106234      -0.01215342      -0.00470591      -0.00575819
Au     -14.12693508      -6.02969546      -8.05193785        0       0.28106234      -0.01215342      -0.00575819      -0.00470591
Au     -14.11962405      -8.06507313      -2.01054309        0       0.27954970      -0.02442007      -0.00818846      -0.00278320
Au     -14.15746680      -6.03755082      -4.01572746        0       0.28302425       0.01624818      -0.01003898      -0.01339148
Au     -13.94586479      -4.02212214     -13.94586479        0       0.54268457       0.01224136      -0.00341491       0.01224136
Au     -14.09886719      -4.02627506     -10.07722741        0       0.27730446       0.00565757       0.00078726       0.01135962
Au     -14.05899823      -2.01434966     -12.07721242        0       0.28291427      -0.01390518      -0.00600890      -0.00194872
Au     -14.15746680      -4.01572746      -6.03755082        0       0.28302425       0.01624818      -0.01339148      -0.01003898
Au     -14.11962405      -2.01054309      -8.06507313        0       0.27954970      -0.02442007      -0.00278320      -0.00818846
Au     -14.15904648      -4.02220615      -2.00674159        0       0.28057723       0.00009877      -0.01586289      -0.00701668
Au     -14.15904648      -2.00674159      -4.02220615        0       0.28057723       0.00009877      -0.00701668      -0.01586289
Au     -12.01778435     -13.91329653     -13.91329653        0       0.54258325       0.01128394      -0.00204664      -0.00204664
Au     -12.04813328     -14.04940838     -10.02913270        0       0.28094699       0.00709994       0.00378980       0.01418702
Au     -10.02913270     -14.04940838     -12.04813328        0       0.28094699       0.01418702       0.00378980       0.00709994
Au     -12.08295031     -14.07222141      -6.03217936        0       0.28393084       0.00138616       0.01413840      -0.00824606
Au     -10.05750719     -14.08658923      -8.03631269        0       0.27647277       0.01232871      -0.01130469       0.00419490
Au     -12.07721242     -14.05899823      -2.01434966        0       0.28291427      -0.00194872      -0.01390518      -0.00600890
Au     -10.07722741     -14.09886719      -4.02627506        0       0.27730446       0.01135962       0.00565757       0.00078726
Au     -12.04813328     -10.02913270     -14.04940838        0       0.28094699       0.00709994       0.01418702       0.00378980
Au     -10.02913270     -12.04813328     -14.04940838        0       0.28094699       0.01418702       0.00709994       0.00378980
Au     -11.99414687     -11.99414687     -11.99414687        0       0.10697192       0.00928378       0.00928378       0.00928378
Au     -12.09200107     -10.01633563     -10.01633563        0       0.02216864      -0.01177011       0.01120728       0.01120728
Au     -10.01633563     -12.09200107     -10.01633563        0       0.02216864       0.01120728      -0.01177011       0.01120728
Au     -10.01633563     -10.01633563     -12.09200107        0       0.02216864       0.01120728       0.01120728      -0.01177011
Au     -12.05400085     -12.05400085      -8.02933711        0       0.06184155       0.00370776       0.00370776       0.00151377
Au     -12.13138364     -10.04789697      -6.03073453        0       0.02105052      -0.00828343       0.00688778       0.00227999
Au     -10.04789697     -12.13138364      -6.03073453        0       0.02105052       0.00688778      -0.00828343       0.00227999
Au     -10.04939756     -10.04939756      -8.02551506        0      -0.00008003       0.01225224       0.01225224       0.00576118
Au     -12.06495897     -12.06495897      -4.03325667        0       0.06333103       0.00263838       0.00263838       0.01533691
Au     -12.12478376     -10.05238400      -2.02164049        0       0.02005861      -0.01609029      -0.00114554       0.01215653
Au     -10.05238400     -12.12478376      -2.02164049        0       0.02005861      -0.00114554      -0.01609029       0.01215653
Au     -10.06718832     -10.06718832      -4.03289921        0      -0.00095605       0.01016561       0.01016561       0.01185001
Au     -12.08295031      -6.03217936     -14.07222141        0       0.28393084       0.00138616      -0.00824606       0.01413840
Au     -10.05750719      -8.03631269     -14.08658923        0       0.27647277       0.01232871       0.00419490      -0.01130469
Au     -12.05400085      -8.02933711     -12.05400085        0       0.06184155       0.00370776       0.00151377       0.00370776
Au     -12.13138364      -6.03073453     -10.04789697        0       0.02105052      -0.00828343       0.00227999       0.00688778
Au     -10.04939756      -8.02551506     -10.04939756        0      -0.00008003       0.01225224       0.00576118       0.01225224
Au     -10.04789697      -6.03073453     -12.13138364        0       0.02105052       0.00688778       0.00227999      -0.00828343
Au     -12.15207484      -8.02948187      -8.02948187        0       0.02513134       0.01089843       0.00784087       0.00784087
Au     -12.18959320      -6.02542710      -6.02542710        0       0.02294826      -0.00073462      -0.01168590      -0.01168590
Au     -10.09505579      -8.04079650      -6.03026582        0       0.00028839       0.00447295       0.00029053       0.00659924
Au     -10.09505579      -6.03026582      -8.04079650        0       0.00028839       0.00447295       0.00659924       0.00029053
Au     -12.17220903      -8.04428585      -4.02716085        0       0.02344518       0.00514679      -0.00152915       0.00826469
Au     -12.18930867      -6.03653037      -2.01566818        0       0.02166599      -0.01208112      -0.01318171       0.00756429
Au     -10.10282924      -8.05303840      -2.01984044        0      -0.00068081      -0.00010952       0.00035666       0.01102018
Au     -10.12006842      -6.03766857      -4.02689758        0      -0.00088097      -0.01156411       0.00444673       0.00627445
Au     -12.07721242      -2.01434966     -14.05899823        0       0.28291427      -0.00194872      -0.00600890      -0.01390518
Au     -10.07722741      -4.02627506     -14.09886719        0       0.27730446       0.01135962       0.00078726       0.00565757
Au     -12.06495897      -4.03325667     -12.06495897        0       0.06333103       0.00263838       0.01533691       0.00263838
Au     -12.12478376      -2.02164049     -10.05238400        0       0.02005861      -0.01609029       0.01215653      -0.00114554
Au     -10.06718832      -4.03289921     -10.06718832        0      -0.00095605       0.01016561       0.01185001       0.01016561
Au     -10.05238400      -2.02164049     -12.12478376        0       0.02005861      -0.00114554       0.01215653      -0.01609029
Au     -12.17220903      -4.02716085      -8.04428585        0       0.02344518       0.00514679       0.00826469      -0.00152915
Au     -12.18930867      -2.01566818      -6.03653037        0       0.02166599      -0.01208112       0.00756429      -0.01318171
Au     -10.12006842      -4.02689758      -6.03766857        0      -0.00088097      -0.01156411       0.00627445       0.00444673
Au     -10.10282924      -2.01984044      -8.05303840        0      -0.00068081      -0.00010952       0.01102018       0.00035666
Au     -12.20394142      -4.02462867      -4.02462867        0       0.02294550      -0.00217615       0.00113333       0.00113333
Au     -12.19448720      -2.01659854      -2.01659854        0       0.02126480      -0.02306567       0.00626820       0.00626820
Au     -10.13616547      -4.03406623      -2.01814259        0      -0.00161409      -0.00894776       0.01118902       0.01213256
Au     -10.13616547      -2.01814259      -4.03406623        0      -0.00161409      -0.00894776       0.01213256       0.01118902
Au      -8.04687058     -13.93705971     -13.93705971        0       0.54073792       0.00255205       0.00357519       0.00357519
Au      -8.03631269     -14.08658923     -10.05750719        0       0.27647277       0.00419490      -0.01130469       0.01232871
Au      -6.03217936     -14.07222141     -12.08295031        0       0.28393084      -0.00824606       0.01413840       0.00138616
Au      -8.05193785     -14.12693508      -6.02969546        0       0.28106234      -0.00470591      -0.01215342      -0.00575819
Au      -6.02969546     -14.12693508      -8.05193785        0       0.28106234      -0.00575819      -0.01215342      -0.00470591
Au      -8.06507313     -14.11962405      -2.01054309        0       0.27954970      -0.00818846      -0.02442007      -0.00278320
Au      -6.03755082     -14.15746680      -4.01572746        0       0.28302425      -0.01003898       0.01624818      -0.01339148
Au      -8.03631269     -10.05750719     -14.08658923        0       0.27647277       0.00419490       0.01232871      -0.01130469
Au      -6.03217936     -12.08295031     -14.07222141        0       0.28393084      -0.00824606       0.00138616       0.01413840
Au      -8.02933711     -12.05400085     -12.05400085        0       0.06184155       0.00151377       0.00370776       0.00370776
Au      -8.02551506     -10.04939756     -10.04939756        0      -0.00008003       0.00576118       0.01225224       0.01225224
Au      -6.03073453     -12.13138364     -10.04789697        0       0.02105052       0.00227999      -0.00828343       0.00688778
Au      -6.03073453     -10.04789697     -12.13138364        0       0.02105052       0.00227999       0.00688778      -0.00828343
Au      -8.02948187     -12.15207484      -8.02948187        0       0.02513134       0.00784087       0.01089843       0.00784087
Au      -8.04079650     -10.09505579      -6.03026582        0       0.00028839       0.00029053       0.00447295       0.00659924
Au      -6.02542710     -12.18959320      -6.02542710        0       0.02294826      -0.01168590      -0.00073462      -0.01168590
Au      -6.03026582     -10.09505579      -8.04079650        0       0.00028839       0.00659924       0.00447295       0.00029053
Au      -8.04428585     -12.17220903      -4.02716085        0       0.02344518      -0.00152915       0.00514679       0.00826469
Au      -8.05303840     -10.10282924      -2.01984044        0      -0.00068081       0.00035666      -0.00010952       0.01102018
Au      -6.03653037     -12.18930867      -2.01566818        0       0.02166599      -0.01318171      -0.01208112       0.00756429
Au      -6.03766857     -10.12006842      -4.02689758        0      -0.00088097       0.00444673      -0.01156411       0.00627445
Au      -8.05193785      -6.02969546     -14.12693508        0       0.28106234      -0.00470591      -0.00575819      -0.01215342
Au      -6.02969546      -8.05193785     -14.12693508        0       0.28106234      -0.00575819      -0.00470591      -0.01215342
Au      -8.02948187      -8.02948187     -12.15207484        0       0.02513134       0.00784087       0.00784087       0.01089843
Au      -8.04079650      -6.03026582     -10.09505579        0       0.00028839       0.00029053       0.00659924       0.00447295
Au      -6.03026582      -8.04079650     -10.09505579        0       0.00028839       0.00659924       0.00029053       0.00447295
Au      -6.02542710      -6.02542710     -12.18959320        0       0.02294826      -0.01168590      -0.01168590      -0.00073462
Au      -8.04484275      -8.04484275      -8.04484275        0       0.00487504       0.01891528       0.01891528       0.01891528
Au      -8.06569172      -6.03439972      -6.03439972        0       0.00276368      -0.01664593      -0.00379739      -0.00379739
Au      -6.03439972      -8.06569172      -6.03439972        0       0.00276368      -0.00379739      -0.01664593      -0.00379739
Au      -6.03439972      -6.03439972      -8.06569172        0       0.00276368      -0.00379739      -0.00379739      -0.01664593
Au      -8.06261042      -8.06261042      -4.02559574        0       0.00302450      -0.00089875      -0.00089875       0.00257288
Au      -8.08334726      -6.04643077      -2.01386705        0       0.00167022      -0.01407073      -0.00434141       0.00543845
Au      -6.04643077      -8.08334726      -2.01386705        0       0.00167022      -0.00434141      -0.01407073       0.00543845
Au      -6.04525288      -6.04525288      -4.02356598        0       0.00225701      -0.01312221      -0.01312221       0.00039879
Au      -8.06507313      -2.01054309     -14.11962405        0       0.27954970      -0.00818846      -0.00278320      -0.02442007
Au      -6.03755082      -4.01572746     -14.15746680        0       0.28302425      -0.01003898      -0.01339148       0.01624818
Au      -8.04428585      -4.02716085     -12.17220903        0       0.02344518      -0.00152915       0.00826469       0.00514679
Au      -8.05303840      -2.01984044     -10.10282924        0      -0.00068081       0.00035666       0.01102018      -0.00010952
Au      -6.03766857      -4.02689758     -10.12006842        0      -0.00088097       0.00444673       0.00627445      -0.01156411
Au      -6.03653037      -2.01566818     -12.18930867        0       0.02166599      -0.01318171       0.00756429      -0.01208112
Au      -8.06261042      -4.02559574      -8.06261042        0       0.00302450      -0.00089875       0.00257288      -0.00089875
Au      -8.08334726      -2.01386705      -6.04643077        0       0.00167022      -0.01407073       0.00543845      -0.00434141
Au      -6.04525288      -4.02356598      -6.04525288        0       0.00225701      -0.01312221       0.00039879      -0.01312221
Au      -6.04643077      -2.01386705      -8.08334726        0       0.00167022      -0.00434141       0.00543845      -0.01407073
Au      -8.08716472      -4.02703976      -4.02703976        0       0.00220373      -0.02108042       0.00180215       0.00180215
Au      -8.10956476      -2.01707702      -2.01707702        0       0.00108921       0.00090429       0.01063773       0.01063773
Au      -6.06383975      -4.03232185      -2.01311797        0       0.00154058      -0.00309768       0.00709796       0.00820013
Au      -6.06383975      -2.01311797      -4.03232185        0       0.00154058      -0.00309768       0.00820013       0.00709796
Au      -4.02212214     -13.94586479     -13.94586479        0       0.54268457      -0.00341491       0.01224136       0.01224136
Au      -4.02627506     -14.09886719     -10.07722741        0       0.27730446       0.00078726       0.00565757       0.01135962
Au      -2.01434966     -14.05899823     -12.07721242        0       0.28291427      -0.00600890      -0.01390518      -0.00194872
Au      -4.01572746     -14.15746680      -6.03755082        0       0.28302425      -0.01339148       0.01624818      -0.01003898
Au      -2.01054309     -14.11962405      -8.06507313        0       0.27954970      -0.00278320      -0.02442007      -0.00818846
Au      -4.02220615     -14.15904648      -2.00674159        0       0.28057723      -0.01586289       0.00009877      -0.00701668
Au      -2.00674159     -14.15904648      -4.02220615        0       0.28057723      -0.00701668       0.00009877      -0.01586289
Au      -4.02627506     -10.07722741     -14.09886719        0       0.27730446       0.00078726       0.01135962       0.00565757
Au      -2.01434966     -12.07721242     -14.05899823        0       0.28291427      -0.00600890      -0.00194872      -0.01390518
Au      -4.03325667     -12.06495897     -12.06495897        0       0.06333103       0.01533691       0.00263838       0.00263838
Au      -4.03289921     -10.06718832     -10.06718832        0      -0.00095605       0.01185001       0.01016561       0.01016561
Au      -2.02164049     -12.12478376     -10.05238400        0       0.02005861       0.01215653      -0.01609029      -0.00114554
Au      -2.02164049     -10.05238400     -12.12478376        0       0.02005861       0.01215653      -0.00114554      -0.01609029
Au      -4.02716085     -12.17220903      -8.04428585        0       0.02344518       0.00826469       0.00514679      -0.00152915
Au      -4.02689758     -10.12006842      -6.03766857        0      -0.00088097       0.00627445      -0.01156411       0.00444673
Au      -2.01566818     -12.18930867      -6.03653037        0       0.02166599       0.00756429      -0.01208112      -0.01318171
Au      -2.01984044     -10.10282924      -8.05303840        0      -0.00068081       0.01102018      -0.00010952       0.00035666
Au      -4.02462867     -12.20394142      -4.02462867        0       0.02294550       0.00113333      -0.00217615       0.00113333
Au      -4.03406623     -10.13616547      -2.01814259        0      -0.00161409       0.01118902      -0.00894776       0.01213256
Au      -2.01659854     -12.19448720      -2.01659854        0       0.02126480       0.00626820      -0.02306567       0.00626820
Au      -2.01814259     -10.13616547      -4.03406623        0      -0.00161409       0.01213256      -0.00894776       0.01118902
Au      -4.01572746      -6.03755082     -14.15746680        0       0.28302425      -0.01339148      -0.01003898       0.01624818
Au      -2.01054309      -8.06507313     -14.11962405        0       0.27954970      -0.00278320      -0.00818846      -0.02442007
Au      -4.02716085      -8.04428585     -12.17220903        0       0.02344518       0.00826469      -0.00152915       0.00514679
Au      -4.02689758      -6.03766857     -10.12006842        0      -0.00088097       0.00627445       0.00444673      -0.01156411
Au      -2.01984044      -8.05303840     -10.10282924        0      -0.00068081       0.01102018       0.00035666      -0.00010952
Au      -2.01566818      -6.03653037     -12.18930867        0       0.02166599       0.00756429      -0.01318171      -0.01208112
Au      -4.02559574      -8.06261042      -8.06261042        0       0.00302450       0.00257288      -0.00089875      -0.00089875
Au      -4.02356598      -6.04525288      -6.04525288        0       0.00225701       0.00039879      -0.01312221      -0.01312221
Au      -2.01386705      -8.08334726      -6.04643077        0       0.00167022       0.00543845      -0.01407073      -0.00434141
Au      -2.01386705      -6.04643077      -8.08334726        0       0.00167022       0.00543845      -0.00434141      -0.01407073
Au      -4.02703976      -8.08716472      -4.02703976        0       0.00220373       0.00180215      -0.02108042       0.00180215
Au      -4.03232185      -6.06383975      -2.01311797        0       0.00154058       0.00709796      -0.00309768       0.00820013
Au      -2.01707702      -8.10956476      -2.01707702        0       0.00108921       0.01063773       0.00090429       0.01063773
Au      -2.01311797      -6.06383975      -4.03232185        0       0.00154058       0.00820013      -0.00309768       0.00709796
Au      -4.02220615      -2.00674159     -14.15904648        0       0.28057723      -0.01586289      -0.00701668       0.00009877
Au      -2.00674159      -4.02220615     -14.15904648        0       0.28057723      -0.00701668      -0.01586289       0.00009877
Au      -4.02462867      -4.02462867     -12.20394142        0       0.02294550       0.00113333       0.00113333      -0.00217615
Au      -4.03406623      -2.01814259     -10.13616547        0      -0.00161409       0.01118902       0.01213256      -0.00894776
Au      -2.01814259      -4.03406623     -10.13616547        0      -0.00161409       0.01213256       0.01118902      -0.00894776
Au      -2.01659854      -2.01659854     -12.19448720        0       0.02126480       0.00626820       0.00626820      -0.02306567
Au      -4.02703976      -4.02703976      -8.08716472        0       0.00220373       0.00180215       0.00180215      -0.02108042
Au      -4.03232185      -2.01311797      -6.06383975        0       0.00154058       0.00709796       0.00820013      -0.00309768
Au      -2.01311797      -4.03232185      -6.06383975        0       0.00154058       0.00820013       0.00709796      -0.00309768
Au      -2.01707702      -2.01707702      -8.10956476        0       0.00108921       0.01063773       0.01063773       0.00090429
Au      -4.03130274      -4.03130274      -4.03130274        0       0.00215457       0.00367100       0.00367100       0.00367100
Au      -4.04560375      -2.01792336      -2.01792336        0       0.00135877       0.01915791       0.01566002       0.01566002
Au      -2.01792336      -4.04560375      -2.01792336        0       0.00135877       0.01566002       0.01915791       0.01566002
Au      -2.01792336      -2.01792336      -4.04560375        0       0.00135877       0.01566002       0.01566002       0.01915791
Au     -13.93188755     -13.93188755       0.00000000        0       0.53990350      -0.02165300      -0.02165300       0.00000000
Au     -13.94586479     -13.94586479       4.02212214        0       0.54268457       0.01224136       0.01224136       0.00341491
Au     -13.93705971     -13.93705971       8.04687058        0       0.54073792       0.00357519       0.00357519      -0.00255205
Au     -13.91329653     -13.91329653      12.01778435        0       0.54258325      -0.00204664      -0.00204664      -0.01128394
Au     -14.05899823     -12.07721242       2.01434966        0       0.28291427      -0.01390518      -0.00194872       0.00600890
Au     -14.08373584     -10.07585827       0.00000000        0       0.27562988      -0.01138905       0.00395848       0.00000000
Au     -14.07222141     -12.08295031       6.03217936        0       0.28393084       0.01413840       0.00138616       0.00824606
Au     -14.09886719     -10.07722741       4.02627506        0       0.27730446       0.00565757       0.01135962      -0.00078726
Au     -14.04940838     -12.04813328      10.02913270        0       0.28094699       0.00378980       0.00709994      -0.01418702
Au     -14.08658923     -10.05750719       8.03631269        0       0.27647277      -0.01130469       0.01232871      -0.00419490
Au     -13.91329653     -12.01778435      13.91329653        0       0.54258325      -0.00204664       0.01128394       0.00204664
Au     -14.04940838     -10.02913270      12.04813328        0       0.28094699       0.00378980       0.01418702      -0.00709994
Au     -14.11962405      -8.06507313       2.01054309        0       0.27954970      -0.02442007      -0.00818846       0.00278320
Au     -14.14447462      -6.04573004       0.00000000        0       0.28091895      -0.00003449      -0.01301601       0.00000000
Au     -14.12693508      -8.05193785       6.02969546        0       0.28106234      -0.01215342      -0.00470591       0.00575819
Au     -14.15746680      -6.03755082       4.01572746        0       0.28302425       0.01624818      -0.01003898       0.01339148
Au     -14.08658923      -8.03631269      10.05750719        0       0.27647277      -0.01130469       0.00419490      -0.01232871
Au     -14.12693508      -6.02969546       8.05193785        0       0.28106234      -0.01215342      -0.00575819       0.00470591
Au     -13.93705971      -8.04687058      13.93705971        0       0.54073792       0.00357519       0.00255205      -0.00357519
Au     -14.07222141      -6.03217936      12.08295031        0       0.28393084       0.01413840      -0.00824606      -0.00138616
Au     -14.15904648      -4.02220615       2.00674159        0       0.28057723       0.00009877      -0.01586289       0.00701668
Au     -14.15052832      -2.00952620       0.00000000        0       0.27817481      -0.01506725      -0.00917827       0.00000000
Au     -14.15746680      -4.01572746       6.03755082        0       0.28302425       0.01624818      -0.01339148       0.01003898
Au     -14.15904648      -2.00674159       4.02220615        0       0.28057723       0.00009877      -0.00701668       0.01586289
Au     -14.09886719      -4.02627506      10.07722741        0       0.27730446       0.00565757       0.00078726      -0.01135962
Au     -14.11962405      -2.01054309       8.06507313        0       0.27954970      -0.02442007      -0.00278320       0.00818846
Au     -13.94586479      -4.02212214      13.94586479        0       0.54268457       0.01224136      -0.00341491      -0.01224136
Au     -14.05899823      -2.01434966      12.07721242        0       0.28291427      -0.01390518      -0.00600890       0.00194872
Au     -12.07721242     -14.05899823       2.01434966        0       0.28291427      -0.00194872      -0.01390518       0.00600890
Au     -10.07585827     -14.08373584       0.00000000        0       0.27562988       0.00395848      -0.01138905      -0.00000000
Au     -12.08295031     -14.07222141       6.03217936        0       0.28393084       0.00138616       0.01413840       0.00824606
Au     -10.07722741     -14.09886719       4.02627506        0       0.27730446       0.01135962       0.00565757      -0.00078726
Au     -12.04813328     -14.04940838      10.02913270        0       0.28094699       0.00709994       0.00378980      -0.01418702
Au     -10.05750719     -14.08658923       8.03631269        0       0.27647277       0.01232871      -0.01130469      -0.00419490
Au     -12.01778435     -13.91329653      13.91329653        0       0.54258325       0.01128394      -0.00204664       0.00204664
Au     -10.02913270     -14.04940838      12.04813328        0       0.28094699       0.01418702       0.00378980      -0.00709994
Au     -12.05380650     -12.05380650       0.00000000        0       0.06429553       0.00326801       0.00326801       0.00000000
Au     -12.12478376     -10.05238400       2.02164049        0       0.02005861      -0.01609029      -0.00114554      -0.01215653
Au     -10.05238400     -12.12478376       2.02164049        0       0.02005861      -0.00114554      -0.01609029      -0.01215653
Au     -10.06478368     -10.06478368       0.00000000        0      -0.00089150       0.00068085       0.00068085      -0.00000000
Au     -12.06495897     -12.06495897       4.03325667        0       0.06333103       0.00263838       0.00263838      -0.01533691
Au     -12.13138364     -10.04789697       6.03073453        0       0.02105052      -0.00828343       0.00688778      -0.00227999
Au     -10.04789697     -12.13138364       6.03073453        0       0.02105052       0.00688778      -0.00828343      -0.00227999
Au     -10.06718832     -10.06718832       4.03289921        0      -0.00095605       0.01016561       0.01016561      -0.01185001
Au     -12.05400085     -12.05400085       8.02933711        0       0.06184155       0.00370776       0.00370776      -0.00151377
Au     -12.09200107     -10.01633563      10.01633563        0       0.02216864      -0.01177011       0.01120728      -0.01120728
Au     -10.01633563     -12.09200107      10.01633563        0       0.02216864       0.01120728      -0.01177011      -0.01120728
Au     -10.04939756     -10.04939756       8.02551506        0      -0.00008003       0.01225224       0.01225224      -0.00576118
Au     -11.99414687     -11.99414687      11.99414687        0       0.10697192       0.00928378       0.00928378      -0.00928378
Au     -12.04813328     -10.02913270      14.04940838        0       0.28094699       0.00709994       0.01418702      -0.00378980
Au     -10.02913270     -12.04813328      14.04940838        0       0.28094699       0.01418702       0.00709994      -0.00378980
Au     -10.01633563     -10.01633563      12.09200107        0       0.02216864       0.01120728       0.01120728       0.01177011
Au     -12.16158552      -8.04989663       0.00000000        0       0.02199386      -0.00453877      -0.00582010       0.00000000
Au     -12.18930867      -6.03653037       2.01566818        0       0.02166599      -0.01208112      -0.01318171      -0.00756429