671
Properties=species:S:1:pos:R:3:energies:R:1:forces:R:3 energy=92.72984774637534 free_energy=92.72984774637534 pbc="F F F"
Au      -0.00000000      -0.00000000      -0.00000000       0.00442858       0.00000000      -0.00000000       0.00000000
Au       0.00000000       0.00000000       4.01809595       0.00143344      -0.00000000      -0.00000000      -0.00294070
Au       0.00000000       0.00000000      -4.01809595       0.00143344      -0.00000000       0.00000000       0.00294070
Au       2.01737676       2.01737676       0.00000000       0.00272072       0.01735331       0.01735331      -0.00000000
Au       2.01737676      -2.01737676      -0.00000000       0.00272072       0.01735331      -0.01735331       0.00000000
Au      -2.01737676       2.01737676      -0.00000000       0.00272072      -0.01735331       0.01735331      -0.00000000
Au      -2.01737676      -2.01737676      -0.00000000       0.00272072      -0.01735331      -0.01735331       0.00000000
Au       2.02335396      -0.00000000       2.00906904       0.00265541       0.01844088      -0.00000000      -0.00497881
Au       2.02335396       0.00000000      -2.00906904       0.00265541       0.01844088      -0.00000000       0.00497881
Au      -2.02335396       0.00000000       2.00906904       0.00265541      -0.01844088      -0.00000000      -0.00497881
Au      -2.02335396      -0.00000000      -2.00906904       0.00265541      -0.01844088      -0.00000000       0.00497881
Au       0.00000000       2.02335396       2.00906904       0.00265541      -0.00000000       0.01844088      -0.00497881
Au      -0.00000000       2.02335396      -2.00906904       0.00265541       0.00000000       0.01844088       0.00497881
Au      -0.00000000      -2.02335396       2.00906904       0.00265541       0.00000000      -0.01844088      -0.00497881
Au       0.00000000      -2.02335396      -2.00906904       0.00265541      -0.00000000      -0.01844088       0.00497881
Au       0.00000000      -0.00000000       7.97711028       0.00293264      -0.00000000       0.00000000       0.00490365
Au      -0.00000000      -0.00000000      -7.97711028       0.00293264       0.00000000       0.00000000      -0.00490365
Au       4.03591240       4.03591240       0.00000000       0.00469906       0.01440029       0.01440029      -0.00000000
Au       4.03591240      -4.03591240       0.00000000       0.00469906       0.01440029      -0.01440029      -0.00000000
Au      -4.03591240       4.03591240      -0.00000000       0.00469906      -0.01440029       0.01440029       0.00000000
Au      -4.03591240      -4.03591240       0.00000000       0.00469906      -0.01440029      -0.01440029      -0.00000000
Au       4.06449079      -0.00000000       3.99400105       0.00318372       0.01699916       0.00000000      -0.00601132
Au       4.06449079      -0.00000000      -3.99400105       0.00318372       0.01699916       0.00000000       0.00601132
Au      -4.06449079      -0.00000000       3.99400105       0.00318372      -0.01699916       0.00000000      -0.00601132
Au      -4.06449079       0.00000000      -3.99400105       0.00318372      -0.01699916      -0.00000000       0.00601132
Au      -0.00000000       4.06449079       3.99400105       0.00318372      -0.00000000       0.01699916      -0.00601132
Au       0.00000000       4.06449079      -3.99400105       0.00318372       0.00000000       0.01699916       0.00601132
Au      -0.00000000      -4.06449079       3.99400105       0.00318372      -0.00000000      -0.01699916      -0.00601132
Au      -0.00000000      -4.06449079      -3.99400105       0.00318372       0.00000000      -0.01699916       0.00601132
Au       2.04132034      -0.00000000       6.00144085       0.00149765       0.01144682      -0.00000000       0.00025790
Au       4.05832565       2.01602003       1.99574382       0.00249370       0.01576731       0.01190713      -0.00217809
Au       4.05832565      -2.01602003       1.99574382       0.00249370       0.01576731      -0.01190713      -0.00217809
Au       2.04132034      -0.00000000      -6.00144085       0.00149765       0.01144682       0.00000000      -0.00025790
Au       4.05832565       2.01602003      -1.99574382       0.00249370       0.01576731       0.01190713       0.00217809
Au       4.05832565      -2.01602003      -1.99574382       0.00249370       0.01576731      -0.01190713       0.00217809
Au      -2.04132034       0.00000000       6.00144085       0.00149765      -0.01144682      -0.00000000       0.00025790
Au      -4.05832565       2.01602003       1.99574382       0.00249370      -0.01576731       0.01190713      -0.00217809
Au      -4.05832565      -2.01602003       1.99574382       0.00249370      -0.01576731      -0.01190713      -0.00217809
Au      -2.04132034       0.00000000      -6.00144085       0.00149765      -0.01144682      -0.00000000      -0.00025790
Au      -4.05832565       2.01602003      -1.99574382       0.00249370      -0.01576731       0.01190713       0.00217809
Au      -4.05832565      -2.01602003      -1.99574382       0.00249370      -0.01576731      -0.01190713       0.00217809
Au       0.00000000       2.04132034       6.00144085       0.00149765      -0.00000000       0.01144682       0.00025790
Au       2.01602003       4.05832565       1.99574382       0.00249370       0.01190713       0.01576731      -0.00217809
Au      -2.01602003       4.05832565       1.99574382       0.00249370      -0.01190713       0.01576731      -0.00217809
Au       2.03161030       2.03161030       4.00666210       0.00136365       0.01321394       0.01321394      -0.00360599
Au      -2.03161030       2.03161030       4.00666210       0.00136365      -0.01321394       0.01321394      -0.00360599
Au      -0.00000000       2.04132034      -6.00144085       0.00149765       0.00000000       0.01144682      -0.00025790
Au       2.01602003       4.05832565      -1.99574382       0.00249370       0.01190713       0.01576731       0.00217809
Au      -2.01602003       4.05832565      -1.99574382       0.00249370      -0.01190713       0.01576731       0.00217809
Au       2.03161030       2.03161030      -4.00666210       0.00136365       0.01321394       0.01321394       0.00360599
Au      -2.03161030       2.03161030      -4.00666210       0.00136365      -0.01321394       0.01321394       0.00360599
Au       0.00000000      -2.04132034       6.00144085       0.00149765      -0.00000000      -0.01144682       0.00025790
Au       2.01602003      -4.05832565       1.99574382       0.00249370       0.01190713      -0.01576731      -0.00217809
Au      -2.01602003      -4.05832565       1.99574382       0.00249370      -0.01190713      -0.01576731      -0.00217809
Au       2.03161030      -2.03161030       4.00666210       0.00136365       0.01321394      -0.01321394      -0.00360599
Au      -2.03161030      -2.03161030       4.00666210       0.00136365      -0.01321394      -0.01321394      -0.00360599
Au       0.00000000      -2.04132034      -6.00144085       0.00149765      -0.00000000      -0.01144682      -0.00025790
Au       2.01602003      -4.05832565      -1.99574382       0.00249370       0.01190713      -0.01576731       0.00217809
Au      -2.01602003      -4.05832565      -1.99574382       0.00249370      -0.01190713      -0.01576731       0.00217809
Au       2.03161030      -2.03161030      -4.00666210       0.00136365       0.01321394      -0.01321394       0.00360599
Au      -2.03161030      -2.03161030      -4.00666210       0.00136365      -0.01321394      -0.01321394       0.00360599
Au       4.06646089       0.00000000       0.00000000       0.00195531       0.01536235      -0.00000000       0.00000000
Au      -4.06646089      -0.00000000       0.00000000       0.00195531      -0.01536235       0.00000000      -0.00000000
Au      -0.00000000       4.06646089      -0.00000000       0.00195531       0.00000000       0.01536235       0.00000000
Au       0.00000000      -4.06646089       0.00000000       0.00195531      -0.00000000      -0.01536235       0.00000000
Au      -0.00000000      -0.00000000      11.87239875       0.00377035      -0.00000000       0.00000000      -0.00317143
Au      -0.00000000       0.00000000     -11.87239875       0.00377035       0.00000000      -0.00000000       0.00317143
Au       6.04478499       6.04478499       0.00000000       0.00216615       0.01681349       0.01681349       0.00000000
Au       6.04478499      -6.04478499       0.00000000       0.00216615       0.01681349      -0.01681349      -0.00000000
Au      -6.04478499       6.04478499      -0.00000000       0.00216615      -0.01681349       0.01681349      -0.00000000
Au      -6.04478499      -6.04478499      -0.00000000       0.00216615      -0.01681349      -0.01681349       0.00000000
Au       6.10321090       0.00000000       5.95963439       0.00054756       0.00429561      -0.00000000       0.00183473
Au       6.10321090      -0.00000000      -5.95963439       0.00054756       0.00429561       0.00000000      -0.00183473
Au      -6.10321090       0.00000000       5.95963439       0.00054756      -0.00429561      -0.00000000       0.00183473
Au      -6.10321090       0.00000000      -5.95963439       0.00054756      -0.00429561      -0.00000000      -0.00183473
Au       0.00000000       6.10321090       5.95963439       0.00054756       0.00000000       0.00429561       0.00183473
Au      -0.00000000       6.10321090      -5.95963439       0.00054756       0.00000000       0.00429561      -0.00183473
Au       0.00000000      -6.10321090       5.95963439       0.00054756      -0.00000000      -0.00429561       0.00183473
Au      -0.00000000      -6.10321090      -5.95963439       0.00054756       0.00000000      -0.00429561      -0.00183473
Au       4.09181822      -0.00000000       7.96403207       0.00065859       0.01236009       0.00000000       0.00709042
Au       6.10743929       2.01890935       3.97147468       0.00018479       0.00907590       0.00969859       0.00106999
Au       6.10743929      -2.01890935       3.97147468       0.00018479       0.00907590      -0.00969859       0.00106999
Au       4.09181822       0.00000000      -7.96403207       0.00065859       0.01236009       0.00000000      -0.00709042
Au       6.10743929       2.01890935      -3.97147468       0.00018479       0.00907590       0.00969859      -0.00106999
Au       6.10743929      -2.01890935      -3.97147468       0.00018479       0.00907590      -0.00969859      -0.00106999
Au      -4.09181822      -0.00000000       7.96403207       0.00065859      -0.01236009       0.00000000       0.00709042
Au      -6.10743929       2.01890935       3.97147468       0.00018479      -0.00907590       0.00969859       0.00106999
Au      -6.10743929      -2.01890935       3.97147468       0.00018479      -0.00907590      -0.00969859       0.00106999
Au      -4.09181822       0.00000000      -7.96403207       0.00065859      -0.01236009      -0.00000000      -0.00709042
Au      -6.10743929       2.01890935      -3.97147468       0.00018479      -0.00907590       0.00969859      -0.00106999
Au      -6.10743929      -2.01890935      -3.97147468       0.00018479      -0.00907590      -0.00969859      -0.00106999
Au      -0.00000000       4.09181822       7.96403207       0.00065859      -0.00000000       0.01236009       0.00709042
Au       2.01890935       6.10743929       3.97147468       0.00018479       0.00969859       0.00907590       0.00106999
Au      -2.01890935       6.10743929       3.97147468       0.00018479      -0.00969859       0.00907590       0.00106999
Au       2.04325942       4.08133792       5.98289305       0.00078212       0.00820312       0.01493053       0.00438331
Au      -2.04325942       4.08133792       5.98289305       0.00078212      -0.00820312       0.01493053       0.00438331
Au       0.00000000       4.09181822      -7.96403207       0.00065859      -0.00000000       0.01236009      -0.00709042
Au       2.01890935       6.10743929      -3.97147468       0.00018479       0.00969859       0.00907590      -0.00106999
Au      -2.01890935       6.10743929      -3.97147468       0.00018479      -0.00969859       0.00907590      -0.00106999
Au       2.04325942       4.08133792      -5.98289305       0.00078212       0.00820312       0.01493053      -0.00438331
Au      -2.04325942       4.08133792      -5.98289305       0.00078212      -0.00820312       0.01493053      -0.00438331
Au      -0.00000000      -4.09181822       7.96403207       0.00065859       0.00000000      -0.01236009       0.00709042
Au       2.01890935      -6.10743929       3.97147468       0.00018479       0.00969859      -0.00907590       0.00106999
Au      -2.01890935      -6.10743929       3.97147468       0.00018479      -0.00969859      -0.00907590       0.00106999
Au       2.04325942      -4.08133792       5.98289305       0.00078212       0.00820312      -0.01493053       0.00438331
Au      -2.04325942      -4.08133792       5.98289305       0.00078212      -0.00820312      -0.01493053       0.00438331
Au       0.00000000      -4.09181822      -7.96403207       0.00065859       0.00000000      -0.01236009      -0.00709042
Au       2.01890935      -6.10743929      -3.97147468       0.00018479       0.00969859      -0.00907590      -0.00106999
Au      -2.01890935      -6.10743929      -3.97147468       0.00018479      -0.00969859      -0.00907590      -0.00106999
Au       2.04325942      -4.08133792      -5.98289305       0.00078212       0.00820312      -0.01493053      -0.00438331
Au      -2.04325942      -4.08133792      -5.98289305       0.00078212      -0.00820312      -0.01493053      -0.00438331
Au       2.05534531       0.00000000       9.93170896       0.00239703       0.00526073      -0.00000000       0.00868550
Au       6.08685714       4.02998338       1.98278505       0.00074243       0.01215101       0.01930982       0.00247447
Au       6.08685714      -4.02998338       1.98278505       0.00074243       0.01215101      -0.01930982       0.00247447
Au       2.05534531       0.00000000      -9.93170896       0.00239703       0.00526073      -0.00000000      -0.00868550
Au       6.08685714       4.02998338      -1.98278505       0.00074243       0.01215101       0.01930982      -0.00247447
Au       6.08685714      -4.02998338      -1.98278505       0.00074243       0.01215101      -0.01930982      -0.00247447
Au      -2.05534531      -0.00000000       9.93170896       0.00239703      -0.00526073      -0.00000000       0.00868550
Au      -6.08685714       4.02998338       1.98278505       0.00074243      -0.01215101       0.01930982       0.00247447
Au      -6.08685714      -4.02998338       1.98278505       0.00074243      -0.01215101      -0.01930982       0.00247447
Au      -2.05534531      -0.00000000      -9.93170896       0.00239703      -0.00526073      -0.00000000      -0.00868550
Au      -6.08685714       4.02998338      -1.98278505       0.00074243      -0.01215101       0.01930982      -0.00247447
Au      -6.08685714      -4.02998338      -1.98278505       0.00074243      -0.01215101      -0.01930982      -0.00247447
Au       0.00000000       2.05534531       9.93170896       0.00239703       0.00000000       0.00526073       0.00868550
Au       4.02998338       6.08685714       1.98278505       0.00074243       0.01930982       0.01215101       0.00247447
Au      -4.02998338       6.08685714       1.98278505       0.00074243      -0.01930982       0.01215101       0.00247447
Au       4.08133792       2.04325942       5.98289305       0.00078212       0.01493053       0.00820312       0.00438331
Au      -4.08133792       2.04325942       5.98289305       0.00078212      -0.01493053       0.00820312       0.00438331
Au       0.00000000       2.05534531      -9.93170896       0.00239703      -0.00000000       0.00526073      -0.00868550
Au       4.02998338       6.08685714      -1.98278505       0.00074243       0.01930982       0.01215101      -0.00247447
Au      -4.02998338       6.08685714      -1.98278505       0.00074243      -0.01930982       0.01215101      -0.00247447
Au       4.08133792       2.04325942      -5.98289305       0.00078212       0.01493053       0.00820312      -0.00438331
Au      -4.08133792       2.04325942      -5.98289305       0.00078212      -0.01493053       0.00820312      -0.00438331
Au      -0.00000000      -2.05534531       9.93170896       0.00239703       0.00000000      -0.00526073       0.00868550
Au       4.02998338      -6.08685714       1.98278505       0.00074243       0.01930982      -0.01215101       0.00247447
Au      -4.02998338      -6.08685714       1.98278505       0.00074243      -0.01930982      -0.01215101       0.00247447
Au       4.08133792      -2.04325942       5.98289305       0.00078212       0.01493053      -0.00820312       0.00438331
Au      -4.08133792      -2.04325942       5.98289305       0.00078212      -0.01493053      -0.00820312       0.00438331
Au      -0.00000000      -2.05534531      -9.93170896       0.00239703      -0.00000000      -0.00526073      -0.00868550
Au       4.02998338      -6.08685714      -1.98278505       0.00074243       0.01930982      -0.01215101      -0.00247447
Au      -4.02998338      -6.08685714      -1.98278505       0.00074243      -0.01930982      -0.01215101      -0.00247447
Au       4.08133792      -2.04325942      -5.98289305       0.00078212       0.01493053      -0.00820312      -0.00438331
Au      -4.08133792      -2.04325942      -5.98289305       0.00078212      -0.01493053      -0.00820312      -0.00438331
Au       2.05267556       2.05267556       7.97173545       0.00141302       0.00687958       0.00687958       0.00920830
Au       2.05267556      -2.05267556       7.97173545       0.00141302       0.00687958      -0.00687958       0.00920830
Au       4.06323348       4.06323348       3.98379625       0.00023087       0.01705704       0.01705704       0.00591236
Au       4.06323348      -4.06323348       3.98379625       0.00023087       0.01705704      -0.01705704       0.00591236
Au       2.05267556       2.05267556      -7.97173545       0.00141302       0.00687958       0.00687958      -0.00920830
Au       2.05267556      -2.05267556      -7.97173545       0.00141302       0.00687958      -0.00687958      -0.00920830
Au       4.06323348       4.06323348      -3.98379625       0.00023087       0.01705704       0.01705704      -0.00591236
Au       4.06323348      -4.06323348      -3.98379625       0.00023087       0.01705704      -0.01705704      -0.00591236
Au      -2.05267556       2.05267556       7.97173545       0.00141302      -0.00687958       0.00687958       0.00920830
Au      -2.05267556      -2.05267556       7.97173545       0.00141302      -0.00687958      -0.00687958       0.00920830
Au      -4.06323348       4.06323348       3.98379625       0.00023087      -0.01705704       0.01705704       0.00591236
Au      -4.06323348      -4.06323348       3.98379625       0.00023087      -0.01705704      -0.01705704       0.00591236
Au      -2.05267556       2.05267556      -7.97173545       0.00141302      -0.00687958       0.00687958      -0.00920830
Au      -2.05267556      -2.05267556      -7.97173545       0.00141302      -0.00687958      -0.00687958      -0.00920830
Au      -4.06323348       4.06323348      -3.98379625       0.00023087      -0.01705704       0.01705704      -0.00591236
Au      -4.06323348      -4.06323348      -3.98379625       0.00023087      -0.01705704      -0.01705704      -0.00591236
Au       6.12826128       0.00000000      -1.98798669      -0.00037375       0.00918309       0.00000000      -0.00058494
Au       6.12161204      -2.00836888       0.00000000      -0.00055206       0.00776833      -0.01238595      -0.00000000
Au       6.12161204       2.00836888       0.00000000      -0.00055206       0.00776833       0.01238595      -0.00000000
Au       6.12826128      -0.00000000       1.98798669      -0.00037375       0.00918309       0.00000000       0.00058494
Au      -6.12826128       0.00000000      -1.98798669      -0.00037375      -0.00918309      -0.00000000      -0.00058494
Au      -6.12161204      -2.00836888      -0.00000000      -0.00055206      -0.00776833      -0.01238595       0.00000000
Au      -6.12161204       2.00836888      -0.00000000      -0.00055206      -0.00776833       0.01238595       0.00000000
Au      -6.12826128       0.00000000       1.98798669      -0.00037375      -0.00918309      -0.00000000       0.00058494
Au      -0.00000000       6.12826128      -1.98798669      -0.00037375       0.00000000       0.00918309      -0.00058494
Au      -2.00836888       6.12161204       0.00000000      -0.00055206      -0.01238595       0.00776833       0.00000000
Au       2.00836888       6.12161204       0.00000000      -0.00055206       0.01238595       0.00776833      -0.00000000
Au       0.00000000       6.12826128       1.98798669      -0.00037375      -0.00000000       0.00918309       0.00058494
Au      -0.00000000      -6.12826128      -1.98798669      -0.00037375       0.00000000      -0.00918309      -0.00058494
Au      -2.00836888      -6.12161204       0.00000000      -0.00055206      -0.01238595      -0.00776833       0.00000000
Au       2.00836888      -6.12161204       0.00000000      -0.00055206       0.01238595      -0.00776833      -0.00000000
Au       0.00000000      -6.12826128       1.98798669      -0.00037375      -0.00000000      -0.00918309       0.00058494
Au      -0.00000000       0.00000000      15.71576831       0.04562130       0.00000000       0.00000000       0.00954994
Au      -0.00000000      -0.00000000     -15.71576831       0.04562130       0.00000000       0.00000000      -0.00954994
Au       8.06364123       8.06364123      -0.00000000       0.08636248      -0.01622935      -0.01622935       0.00000000
Au       8.06364123      -8.06364123       0.00000000       0.08636248      -0.01622935       0.01622935      -0.00000000
Au      -8.06364123       8.06364123       0.00000000       0.08636248       0.01622935      -0.01622935      -0.00000000
Au      -8.06364123      -8.06364123      -0.00000000       0.08636248       0.01622935       0.01622935      -0.00000000
Au       8.13654321      -0.00000000       7.92601373       0.05437707      -0.01644136      -0.00000000      -0.01116909
Au       8.13654321      -0.00000000      -7.92601373       0.05437707      -0.01644136       0.00000000       0.01116909
Au      -8.13654321      -0.00000000       7.92601373       0.05437707       0.01644136       0.00000000      -0.01116909
Au      -8.13654321       0.00000000      -7.92601373       0.05437707       0.01644136      -0.00000000       0.01116909
Au       0.00000000       8.13654321       7.92601373       0.05437707      -0.00000000      -0.01644136      -0.01116909
Au      -0.00000000       8.13654321      -7.92601373       0.05437707       0.00000000      -0.01644136       0.01116909
Au       0.00000000      -8.13654321       7.92601373       0.05437707      -0.00000000       0.01644136      -0.01116909
Au      -0.00000000      -8.13654321      -7.92601373       0.05437707       0.00000000       0.01644136       0.01116909
Au       6.14251570       0.00000000       9.92681426       0.01919068      -0.00549973       0.00000000       0.00137236
Au       8.16486823       2.03120639       5.94516910       0.03656970      -0.01285167      -0.00089423      -0.00697467
Au       8.16486823      -2.03120639       5.94516910       0.03656970      -0.01285167       0.00089423      -0.00697467
Au       6.14251570      -0.00000000      -9.92681426       0.01919068      -0.00549973       0.00000000      -0.00137236
Au       8.16486823       2.03120639      -5.94516910       0.03656970      -0.01285167      -0.00089423       0.00697467
Au       8.16486823      -2.03120639      -5.94516910       0.03656970      -0.01285167       0.00089423       0.00697467
Au      -6.14251570      -0.00000000       9.92681426       0.01919068       0.00549973       0.00000000       0.00137236
Au      -8.16486823       2.03120639       5.94516910       0.03656970       0.01285167      -0.00089423      -0.00697467
Au      -8.16486823      -2.03120639       5.94516910       0.03656970       0.01285167       0.00089423      -0.00697467
Au      -6.14251570      -0.00000000      -9.92681426       0.01919068       0.00549973       0.00000000      -0.00137236
Au      -8.16486823       2.03120639      -5.94516910       0.03656970       0.01285167      -0.00089423       0.00697467
Au      -8.16486823      -2.03120639      -5.94516910       0.03656970       0.01285167       0.00089423       0.00697467
Au      -0.00000000       6.14251570       9.92681426       0.01919068       0.00000000      -0.00549973       0.00137236
Au       2.03120639       8.16486823       5.94516910       0.03656970      -0.00089423      -0.01285167      -0.00697467
Au      -2.03120639       8.16486823       5.94516910       0.03656970       0.00089423      -0.01285167      -0.00697467
Au       2.06994287       6.14173690       7.95906544       0.00426459       0.00300164       0.00510438       0.00869204
Au      -2.06994287       6.14173690       7.95906544       0.00426459      -0.00300164       0.00510438       0.00869204
Au      -0.00000000       6.14251570      -9.92681426       0.01919068      -0.00000000      -0.00549973      -0.00137236
Au       2.03120639       8.16486823      -5.94516910       0.03656970      -0.00089423      -0.01285167       0.00697467
Au      -2.03120639       8.16486823      -5.94516910       0.03656970       0.00089423      -0.01285167       0.00697467
Au       2.06994287       6.14173690      -7.95906544       0.00426459       0.00300164       0.00510438      -0.00869204
Au      -2.06994287       6.14173690      -7.95906544       0.00426459      -0.00300164       0.00510438      -0.00869204
Au      -0.00000000      -6.14251570       9.92681426       0.01919068       0.00000000       0.00549973       0.00137236
Au       2.03120639      -8.16486823       5.94516910       0.03656970      -0.00089423       0.01285167      -0.00697467
Au      -2.03120639      -8.16486823       5.94516910       0.03656970       0.00089423       0.01285167      -0.00697467
Au       2.06994287      -6.14173690       7.95906544       0.00426459       0.00300164      -0.00510438       0.00869204
Au      -2.06994287      -6.14173690       7.95906544       0.00426459      -0.00300164      -0.00510438       0.00869204
Au      -0.00000000      -6.14251570      -9.92681426       0.01919068       0.00000000       0.00549973      -0.00137236
Au       2.03120639      -8.16486823      -5.94516910       0.03656970      -0.00089423       0.01285167       0.00697467
Au      -2.03120639      -8.16486823      -5.94516910       0.03656970       0.00089423       0.01285167       0.00697467
Au       2.06994287      -6.14173690      -7.95906544       0.00426459       0.00300164      -0.00510438      -0.00869204
Au      -2.06994287      -6.14173690      -7.95906544       0.00426459      -0.00300164      -0.00510438      -0.00869204
Au       4.11606763       0.00000000      11.87910523       0.02272910      -0.01232851      -0.00000000       0.00555035
Au       8.15236218       4.04662567       3.95795236       0.03698544      -0.00746699      -0.00006237      -0.00149003
Au       8.15236218      -4.04662567       3.95795236       0.03698544      -0.00746699       0.00006237      -0.00149003
Au       4.11606763       0.00000000     -11.87910523       0.02272910      -0.01232851       0.00000000      -0.00555035
Au       8.15236218       4.04662567      -3.95795236       0.03698544      -0.00746699      -0.00006237       0.00149003
Au       8.15236218      -4.04662567      -3.95795236       0.03698544      -0.00746699       0.00006237       0.00149003
Au      -4.11606763       0.00000000      11.87910523       0.02272910       0.01232851      -0.00000000       0.00555035
Au      -8.15236218       4.04662567       3.95795236       0.03698544       0.00746699      -0.00006237      -0.00149003
Au      -8.15236218      -4.04662567       3.95795236       0.03698544       0.00746699       0.00006237      -0.00149003
Au      -4.11606763       0.00000000     -11.87910523       0.02272910       0.01232851      -0.00000000      -0.00555035
Au      -8.15236218       4.04662567      -3.95795236       0.03698544       0.00746699      -0.00006237       0.00149003
Au      -8.15236218      -4.04662567      -3.95795236       0.03698544       0.00746699       0.00006237       0.00149003
Au       0.00000000       4.11606763      11.87910523       0.02272910      -0.00000000      -0.01232851       0.00555035
Au       4.04662567       8.15236218       3.95795236       0.03698544      -0.00006237      -0.00746699      -0.00149003
Au      -4.04662567       8.15236218       3.95795236       0.03698544       0.00006237      -0.00746699      -0.00149003
Au       4.11349016       4.11349016       7.96011642       0.00979318      -0.00445631      -0.00445631       0.01130094
Au      -4.11349016       4.11349016       7.96011642       0.00979318       0.00445631      -0.00445631       0.01130094
Au      -0.00000000       4.11606763     -11.87910523       0.02272910      -0.00000000      -0.01232851      -0.00555035
Au       4.04662567       8.15236218      -3.95795236       0.03698544      -0.00006237      -0.00746699       0.00149003
Au      -4.04662567       8.15236218      -3.95795236       0.03698544       0.00006237      -0.00746699       0.00149003
Au       4.11349016       4.11349016      -7.96011642       0.00979318      -0.00445631      -0.00445631      -0.01130094
Au      -4.11349016       4.11349016      -7.96011642       0.00979318       0.00445631      -0.00445631      -0.01130094
Au       0.00000000      -4.11606763      11.87910523       0.02272910      -0.00000000       0.01232851       0.00555035