369
Properties=species:S:1:pos:R:3:energies:R:1:forces:R:3 energy=62.3001907037167 free_energy=62.3001907037167 pbc="F F F"
Au      -0.00000000       0.00000000      -0.00000000       0.00491901       0.00000000      -0.00000000      -0.00000000
Au       0.00000000       0.00000000       4.01671243       0.00035859      -0.00000000      -0.00000000      -0.03161826
Au       0.00000000      -0.00000000      -4.01671243       0.00035859       0.00000000       0.00000000       0.03161826
Au       2.01647824       2.01647824      -0.00000000       0.00506842      -0.00796510      -0.00796510       0.00000000
Au       2.01647824      -2.01647824       0.00000000       0.00506842      -0.00796510       0.00796510      -0.00000000
Au      -2.01647824       2.01647824      -0.00000000       0.00506842       0.00796510      -0.00796510       0.00000000
Au      -2.01647824      -2.01647824       0.00000000       0.00506842       0.00796510       0.00796510      -0.00000000
Au       2.02673226      -0.00000000       2.00864129       0.00321863      -0.00923124       0.00000000      -0.01458870
Au       2.02673226       0.00000000      -2.00864129       0.00321863      -0.00923124      -0.00000000       0.01458870
Au      -2.02673226       0.00000000       2.00864129       0.00321863       0.00923124       0.00000000      -0.01458870
Au      -2.02673226      -0.00000000      -2.00864129       0.00321863       0.00923124      -0.00000000       0.01458870
Au       0.00000000       2.02673226       2.00864129       0.00321863       0.00000000      -0.00923124      -0.01458870
Au       0.00000000       2.02673226      -2.00864129       0.00321863      -0.00000000      -0.00923124       0.01458870
Au      -0.00000000      -2.02673226       2.00864129       0.00321863      -0.00000000       0.00923124      -0.01458870
Au      -0.00000000      -2.02673226      -2.00864129       0.00321863       0.00000000       0.00923124       0.01458870
Au      -0.00000000       0.00000000       7.93999185       0.00310028       0.00000000      -0.00000000      -0.01820554
Au      -0.00000000      -0.00000000      -7.93999185       0.00310028      -0.00000000       0.00000000       0.01820554
Au       4.01818174       4.01818174       0.00000000       0.00312817       0.00898712       0.00898712      -0.00000000
Au       4.01818174      -4.01818174       0.00000000       0.00312817       0.00898712      -0.00898712      -0.00000000
Au      -4.01818174       4.01818174       0.00000000       0.00312817      -0.00898712       0.00898712      -0.00000000
Au      -4.01818174      -4.01818174       0.00000000       0.00312817      -0.00898712      -0.00898712      -0.00000000
Au       4.05710270      -0.00000000       3.98129369       0.00153106       0.00013321       0.00000000      -0.01704914
Au       4.05710270       0.00000000      -3.98129369       0.00153106       0.00013321      -0.00000000       0.01704914
Au      -4.05710270       0.00000000       3.98129369       0.00153106      -0.00013321       0.00000000      -0.01704914
Au      -4.05710270      -0.00000000      -3.98129369       0.00153106      -0.00013321       0.00000000       0.01704914
Au       0.00000000       4.05710270       3.98129369       0.00153106      -0.00000000       0.00013321      -0.01704914
Au      -0.00000000       4.05710270      -3.98129369       0.00153106      -0.00000000       0.00013321       0.01704914
Au       0.00000000      -4.05710270       3.98129369       0.00153106       0.00000000      -0.00013321      -0.01704914
Au      -0.00000000      -4.05710270      -3.98129369       0.00153106      -0.00000000      -0.00013321       0.01704914
Au       2.04422108       0.00000000       5.98753334       0.00131894       0.00302836      -0.00000000      -0.03062683
Au       4.05999142       2.01151817       1.99048613       0.00085790      -0.00904075       0.00440049      -0.01100892
Au       4.05999142      -2.01151817       1.99048613       0.00085790      -0.00904075      -0.00440049      -0.01100892
Au       2.04422108       0.00000000      -5.98753334       0.00131894       0.00302836       0.00000000       0.03062683
Au       4.05999142       2.01151817      -1.99048613       0.00085790      -0.00904075       0.00440049       0.01100892
Au       4.05999142      -2.01151817      -1.99048613       0.00085790      -0.00904075      -0.00440049       0.01100892
Au      -2.04422108      -0.00000000       5.98753334       0.00131894      -0.00302836       0.00000000      -0.03062683
Au      -4.05999142       2.01151817       1.99048613       0.00085790       0.00904075       0.00440049      -0.01100892
Au      -4.05999142      -2.01151817       1.99048613       0.00085790       0.00904075      -0.00440049      -0.01100892
Au      -2.04422108      -0.00000000      -5.98753334       0.00131894      -0.00302836       0.00000000       0.03062683
Au      -4.05999142       2.01151817      -1.99048613       0.00085790       0.00904075       0.00440049       0.01100892
Au      -4.05999142      -2.01151817      -1.99048613       0.00085790       0.00904075      -0.00440049       0.01100892
Au      -0.00000000       2.04422108       5.98753334       0.00131894       0.00000000       0.00302836      -0.03062683
Au       2.01151817       4.05999142       1.99048613       0.00085790       0.00440049      -0.00904075      -0.01100892
Au      -2.01151817       4.05999142       1.99048613       0.00085790      -0.00440049      -0.00904075      -0.01100892
Au       2.04005831       2.04005831       4.00533704       0.00099962      -0.00775677      -0.00775677      -0.03142201
Au      -2.04005831       2.04005831       4.00533704       0.00099962       0.00775677      -0.00775677      -0.03142201
Au      -0.00000000       2.04422108      -5.98753334       0.00131894       0.00000000       0.00302836       0.03062683
Au       2.01151817       4.05999142      -1.99048613       0.00085790       0.00440049      -0.00904075       0.01100892
Au      -2.01151817       4.05999142      -1.99048613       0.00085790      -0.00440049      -0.00904075       0.01100892
Au       2.04005831       2.04005831      -4.00533704       0.00099962      -0.00775677      -0.00775677       0.03142201
Au      -2.04005831       2.04005831      -4.00533704       0.00099962       0.00775677      -0.00775677       0.03142201
Au      -0.00000000      -2.04422108       5.98753334       0.00131894       0.00000000      -0.00302836      -0.03062683
Au       2.01151817      -4.05999142       1.99048613       0.00085790       0.00440049       0.00904075      -0.01100892
Au      -2.01151817      -4.05999142       1.99048613       0.00085790      -0.00440049       0.00904075      -0.01100892
Au       2.04005831      -2.04005831       4.00533704       0.00099962      -0.00775677       0.00775677      -0.03142201
Au      -2.04005831      -2.04005831       4.00533704       0.00099962       0.00775677       0.00775677      -0.03142201
Au      -0.00000000      -2.04422108      -5.98753334       0.00131894      -0.00000000      -0.00302836       0.03062683
Au       2.01151817      -4.05999142      -1.99048613       0.00085790       0.00440049       0.00904075       0.01100892
Au      -2.01151817      -4.05999142      -1.99048613       0.00085790      -0.00440049       0.00904075       0.01100892
Au       2.04005831      -2.04005831      -4.00533704       0.00099962      -0.00775677       0.00775677       0.03142201
Au      -2.04005831      -2.04005831      -4.00533704       0.00099962       0.00775677       0.00775677       0.03142201
Au       4.08328676       0.00000000       0.00000000      -0.00111338      -0.02498919       0.00000000      -0.00000000
Au      -4.08328676      -0.00000000       0.00000000      -0.00111338       0.02498919      -0.00000000      -0.00000000
Au      -0.00000000       4.08328676       0.00000000      -0.00111338      -0.00000000      -0.02498919      -0.00000000
Au      -0.00000000      -4.08328676      -0.00000000      -0.00111338       0.00000000       0.02498919      -0.00000000
Au      -0.00000000       0.00000000      11.80392797       0.04879532      -0.00000000      -0.00000000       0.01753626
Au       0.00000000       0.00000000     -11.80392797       0.04879532      -0.00000000      -0.00000000      -0.01753626
Au       6.02129812       6.02129812       0.00000000       0.08583413       0.00645238       0.00645238       0.00000000
Au       6.02129812      -6.02129812       0.00000000       0.08583413       0.00645238      -0.00645238      -0.00000000
Au      -6.02129812       6.02129812       0.00000000       0.08583413      -0.00645238       0.00645238       0.00000000
Au      -6.02129812      -6.02129812       0.00000000       0.08583413      -0.00645238      -0.00645238      -0.00000000
Au       6.09336624      -0.00000000       5.93719443       0.05458990       0.01157278       0.00000000       0.01144286
Au       6.09336624      -0.00000000      -5.93719443       0.05458990       0.01157278       0.00000000      -0.01144286
Au      -6.09336624       0.00000000       5.93719443       0.05458990      -0.01157278       0.00000000       0.01144286
Au      -6.09336624       0.00000000      -5.93719443       0.05458990      -0.01157278       0.00000000      -0.01144286
Au       0.00000000       6.09336624       5.93719443       0.05458990      -0.00000000       0.01157278       0.01144286
Au      -0.00000000       6.09336624      -5.93719443       0.05458990      -0.00000000       0.01157278      -0.01144286
Au       0.00000000      -6.09336624       5.93719443       0.05458990      -0.00000000      -0.01157278       0.01144286
Au      -0.00000000      -6.09336624      -5.93719443       0.05458990      -0.00000000      -0.01157278      -0.01144286
Au       4.09224225       0.00000000       7.93718071       0.02064362       0.02304744      -0.00000000       0.00817881
Au       6.12081741       2.01552296       3.95632358       0.03792968      -0.00768286       0.01592650       0.00533462
Au       6.12081741      -2.01552296       3.95632358       0.03792968      -0.00768286      -0.01592650       0.00533462
Au       4.09224225       0.00000000      -7.93718071       0.02064362       0.02304744       0.00000000      -0.00817881
Au       6.12081741       2.01552296      -3.95632358       0.03792968      -0.00768286       0.01592650      -0.00533462
Au       6.12081741      -2.01552296      -3.95632358       0.03792968      -0.00768286      -0.01592650      -0.00533462
Au      -4.09224225      -0.00000000       7.93718071       0.02064362      -0.02304744      -0.00000000       0.00817881
Au      -6.12081741       2.01552296       3.95632358       0.03792968       0.00768286       0.01592650       0.00533462
Au      -6.12081741      -2.01552296       3.95632358       0.03792968       0.00768286      -0.01592650       0.00533462
Au      -4.09224225      -0.00000000      -7.93718071       0.02064362      -0.02304744      -0.00000000      -0.00817881
Au      -6.12081741       2.01552296      -3.95632358       0.03792968       0.00768286       0.01592650      -0.00533462
Au      -6.12081741      -2.01552296      -3.95632358       0.03792968       0.00768286      -0.01592650      -0.00533462
Au      -0.00000000       4.09224225       7.93718071       0.02064362       0.00000000       0.02304744       0.00817881
Au       2.01552296       6.12081741       3.95632358       0.03792968       0.01592650      -0.00768286       0.00533462
Au      -2.01552296       6.12081741       3.95632358       0.03792968      -0.01592650      -0.00768286       0.00533462
Au       2.06519631       4.09732437       5.97570434       0.00672896       0.00307961      -0.00204423      -0.00440848
Au      -2.06519631       4.09732437       5.97570434       0.00672896      -0.00307961      -0.00204423      -0.00440848
Au      -0.00000000       4.09224225      -7.93718071       0.02064362      -0.00000000       0.02304744      -0.00817881
Au       2.01552296       6.12081741      -3.95632358       0.03792968       0.01592650      -0.00768286      -0.00533462
Au      -2.01552296       6.12081741      -3.95632358       0.03792968      -0.01592650      -0.00768286      -0.00533462
Au       2.06519631       4.09732437      -5.97570434       0.00672896       0.00307961      -0.00204423       0.00440848
Au      -2.06519631       4.09732437      -5.97570434       0.00672896      -0.00307961      -0.00204423       0.00440848
Au      -0.00000000      -4.09224225       7.93718071       0.02064362       0.00000000      -0.02304744       0.00817881
Au       2.01552296      -6.12081741       3.95632358       0.03792968       0.01592650       0.00768286       0.00533462
Au      -2.01552296      -6.12081741       3.95632358       0.03792968      -0.01592650       0.00768286       0.00533462
Au       2.06519631      -4.09732437       5.97570434       0.00672896       0.00307961       0.00204423      -0.00440848
Au      -2.06519631      -4.09732437       5.97570434       0.00672896      -0.00307961       0.00204423      -0.00440848
Au      -0.00000000      -4.09224225      -7.93718071       0.02064362       0.00000000      -0.02304744      -0.00817881
Au       2.01552296      -6.12081741      -3.95632358       0.03792968       0.01592650       0.00768286      -0.00533462
Au      -2.01552296      -6.12081741      -3.95632358       0.03792968      -0.01592650       0.00768286      -0.00533462
Au       2.06519631      -4.09732437      -5.97570434       0.00672896       0.00307961       0.00204423       0.00440848
Au      -2.06519631      -4.09732437      -5.97570434       0.00672896      -0.00307961       0.00204423       0.00440848
Au       2.06235582      -0.00000000       9.88866367       0.02235256       0.01450363      -0.00000000      -0.00650050
Au       6.09669961       4.01855601       1.97929307       0.03414404      -0.00381016       0.02129521      -0.00077049
Au       6.09669961      -4.01855601       1.97929307       0.03414404      -0.00381016      -0.02129521      -0.00077049
Au       2.06235582      -0.00000000      -9.88866367       0.02235256       0.01450363       0.00000000       0.00650050
Au       6.09669961       4.01855601      -1.97929307       0.03414404      -0.00381016       0.02129521       0.00077049
Au       6.09669961      -4.01855601      -1.97929307       0.03414404      -0.00381016      -0.02129521       0.00077049
Au      -2.06235582       0.00000000       9.88866367       0.02235256      -0.01450363      -0.00000000      -0.00650050
Au      -6.09669961       4.01855601       1.97929307       0.03414404       0.00381016       0.02129521      -0.00077049
Au      -6.09669961      -4.01855601       1.97929307       0.03414404       0.00381016      -0.02129521      -0.00077049
Au      -2.06235582       0.00000000      -9.88866367       0.02235256      -0.01450363      -0.00000000       0.00650050
Au      -6.09669961       4.01855601      -1.97929307       0.03414404       0.00381016       0.02129521       0.00077049
Au      -6.09669961      -4.01855601      -1.97929307       0.03414404       0.00381016      -0.02129521       0.00077049
Au       0.00000000       2.06235582       9.88866367       0.02235256       0.00000000       0.01450363      -0.00650050
Au       4.01855601       6.09669961       1.97929307       0.03414404       0.02129521      -0.00381016      -0.00077049
Au      -4.01855601       6.09669961       1.97929307       0.03414404      -0.02129521      -0.00381016      -0.00077049
Au       4.09732437       2.06519631       5.97570434       0.00672896      -0.00204423       0.00307961      -0.00440848
Au      -4.09732437       2.06519631       5.97570434       0.00672896       0.00204423       0.00307961      -0.00440848
Au      -0.00000000       2.06235582      -9.88866367       0.02235256      -0.00000000       0.01450363       0.00650050
Au       4.01855601       6.09669961      -1.97929307       0.03414404       0.02129521      -0.00381016       0.00077049
Au      -4.01855601       6.09669961      -1.97929307       0.03414404      -0.02129521      -0.00381016       0.00077049
Au       4.09732437       2.06519631      -5.97570434       0.00672896      -0.00204423       0.00307961       0.00440848
Au      -4.09732437       2.06519631      -5.97570434       0.00672896       0.00204423       0.00307961       0.00440848
Au      -0.00000000      -2.06235582       9.88866367       0.02235256       0.00000000      -0.01450363      -0.00650050
Au       4.01855601      -6.09669961       1.97929307       0.03414404       0.02129521       0.00381016      -0.00077049
Au      -4.01855601      -6.09669961       1.97929307       0.03414404      -0.02129521       0.00381016      -0.00077049
Au       4.09732437      -2.06519631       5.97570434       0.00672896      -0.00204423      -0.00307961      -0.00440848
Au      -4.09732437      -2.06519631       5.97570434       0.00672896       0.00204423      -0.00307961      -0.00440848
Au      -0.00000000      -2.06235582      -9.88866367       0.02235256      -0.00000000      -0.01450363       0.00650050
Au       4.01855601      -6.09669961      -1.97929307       0.03414404       0.02129521       0.00381016       0.00077049
Au      -4.01855601      -6.09669961      -1.97929307       0.03414404      -0.02129521       0.00381016       0.00077049
Au       4.09732437      -2.06519631      -5.97570434       0.00672896      -0.00204423      -0.00307961       0.00440848
Au      -4.09732437      -2.06519631      -5.97570434       0.00672896       0.00204423      -0.00307961       0.00440848
Au       2.07019268       2.07019268       7.95208158       0.00857493       0.00497994       0.00497994      -0.01289784
Au       2.07019268      -2.07019268       7.95208158       0.00857493       0.00497994      -0.00497994      -0.01289784
Au       4.07896037       4.07896037       3.98433905       0.00293104      -0.00069981      -0.00069981      -0.00798815
Au       4.07896037      -4.07896037       3.98433905       0.00293104      -0.00069981       0.00069981      -0.00798815
Au       2.07019268       2.07019268      -7.95208158       0.00857493       0.00497994       0.00497994       0.01289784
Au       2.07019268      -2.07019268      -7.95208158       0.00857493       0.00497994      -0.00497994       0.01289784
Au       4.07896037       4.07896037      -3.98433905       0.00293104      -0.00069981      -0.00069981       0.00798815
Au       4.07896037      -4.07896037      -3.98433905       0.00293104      -0.00069981       0.00069981       0.00798815
Au      -2.07019268       2.07019268       7.95208158       0.00857493      -0.00497994       0.00497994      -0.01289784
Au      -2.07019268      -2.07019268       7.95208158       0.00857493      -0.00497994      -0.00497994      -0.01289784
Au      -4.07896037       4.07896037       3.98433905       0.00293104       0.00069981      -0.00069981      -0.00798815
Au      -4.07896037      -4.07896037       3.98433905       0.00293104       0.00069981       0.00069981      -0.00798815
Au      -2.07019268       2.07019268      -7.95208158       0.00857493      -0.00497994       0.00497994       0.01289784
Au      -2.07019268      -2.07019268      -7.95208158       0.00857493      -0.00497994      -0.00497994       0.01289784
Au      -4.07896037       4.07896037      -3.98433905       0.00293104       0.00069981      -0.00069981       0.00798815
Au      -4.07896037      -4.07896037      -3.98433905       0.00293104       0.00069981       0.00069981       0.00798815
Au       6.16973983       0.00000000      -1.97947936       0.02223438      -0.02781410       0.00000000      -0.00080545
Au       6.16158904      -2.00218035       0.00000000       0.02193493      -0.02954011      -0.01432299       0.00000000
Au       6.16158904       2.00218035       0.00000000       0.02193493      -0.02954011       0.01432299      -0.00000000
Au       6.16973983       0.00000000       1.97947936       0.02223438      -0.02781410      -0.00000000       0.00080545
Au      -6.16973983      -0.00000000      -1.97947936       0.02223438       0.02781410      -0.00000000      -0.00080545
Au      -6.16158904      -2.00218035       0.00000000       0.02193493       0.02954011      -0.01432299      -0.00000000
Au      -6.16158904       2.00218035      -0.00000000       0.02193493       0.02954011       0.01432299      -0.00000000
Au      -6.16973983      -0.00000000       1.97947936       0.02223438       0.02781410       0.00000000       0.00080545
Au       0.00000000       6.16973983      -1.97947936       0.02223438      -0.00000000      -0.02781410      -0.00080545
Au      -2.00218035       6.16158904       0.00000000       0.02193493      -0.01432299      -0.02954011      -0.00000000
Au       2.00218035       6.16158904      -0.00000000       0.02193493       0.01432299      -0.02954011       0.00000000
Au       0.00000000       6.16973983       1.97947936       0.02223438      -0.00000000      -0.02781410       0.00080545
Au       0.00000000      -6.16973983      -1.97947936       0.02223438       0.00000000       0.02781410      -0.00080545
Au      -2.00218035      -6.16158904       0.00000000       0.02193493      -0.01432299       0.02954011       0.00000000
Au       2.00218035      -6.16158904      -0.00000000       0.02193493       0.01432299       0.02954011       0.00000000
Au      -0.00000000      -6.16973983       1.97947936       0.02223438       0.00000000       0.02781410       0.00080545
Au       0.00000000       0.00000000      15.33707763       0.65400226       0.00000000       0.00000000      -0.02385919
Au       0.00000000       0.00000000     -15.33707763       0.65400226      -0.00000000       0.00000000       0.02385919
Au       7.91830140       7.91830140      -0.00000000       0.55236752       0.01207262       0.01207262       0.00000000
Au       7.91830140      -7.91830140      -0.00000000       0.55236752       0.01207262      -0.01207262       0.00000000
Au      -7.91830140       7.91830140      -0.00000000       0.55236752      -0.01207262       0.01207262       0.00000000
Au      -7.91830140      -7.91830140       0.00000000       0.55236752      -0.01207262      -0.01207262       0.00000000
Au       7.97269630      -0.00000000       7.85573246       0.45982173      -0.01162002       0.00000000      -0.01080426
Au       7.97269630       0.00000000      -7.85573246       0.45982173      -0.01162002      -0.00000000       0.01080426
Au      -7.97269630      -0.00000000       7.85573246       0.45982173       0.01162002       0.00000000      -0.01080426
Au      -7.97269630      -0.00000000      -7.85573246       0.45982173       0.01162002       0.00000000       0.01080426
Au       0.00000000       7.97269630       7.85573246       0.45982173      -0.00000000      -0.01162002      -0.01080426
Au      -0.00000000       7.97269630      -7.85573246       0.45982173       0.00000000      -0.01162002       0.01080426
Au       0.00000000      -7.97269630       7.85573246       0.45982173      -0.00000000       0.01162002      -0.01080426
Au      -0.00000000      -7.97269630      -7.85573246       0.45982173       0.00000000       0.01162002       0.01080426
Au       6.04206696       0.00000000       9.82097507       0.37339240       0.00357951      -0.00000000       0.01889761
Au       8.04066279       1.99832125       5.91355600       0.36651972      -0.00484163       0.01080933      -0.00253469
Au       8.04066279      -1.99832125       5.91355600       0.36651972      -0.00484163      -0.01080933      -0.00253469
Au       6.04206696      -0.00000000      -9.82097507       0.37339240       0.00357951      -0.00000000      -0.01889761
Au       8.04066279       1.99832125      -5.91355600       0.36651972      -0.00484163       0.01080933       0.00253469
Au       8.04066279      -1.99832125      -5.91355600       0.36651972      -0.00484163      -0.01080933       0.00253469
Au      -6.04206696      -0.00000000       9.82097507       0.37339240      -0.00357951       0.00000000       0.01889761
Au      -8.04066279       1.99832125       5.91355600       0.36651972       0.00484163       0.01080933      -0.00253469
Au      -8.04066279      -1.99832125       5.91355600       0.36651972       0.00484163      -0.01080933      -0.00253469
Au      -6.04206696       0.00000000      -9.82097507       0.37339240      -0.00357951      -0.00000000      -0.01889761
Au      -8.04066279       1.99832125      -5.91355600       0.36651972       0.00484163       0.01080933       0.00253469
Au      -8.04066279      -1.99832125      -5.91355600       0.36651972       0.00484163      -0.01080933       0.00253469
Au      -0.00000000       6.04206696       9.82097507       0.37339240       0.00000000       0.00357951       0.01889761
Au       1.99832125       8.04066279       5.91355600       0.36651972       0.01080933      -0.00484163      -0.00253469
Au      -1.99832125       8.04066279       5.91355600       0.36651972      -0.01080933      -0.00484163      -0.00253469
Au       2.05139986       6.11693411       7.92188201       0.21725941       0.02046839       0.01004330       0.02749586
Au      -2.05139986       6.11693411       7.92188201       0.21725941      -0.02046839       0.01004330       0.02749586
Au      -0.00000000       6.04206696      -9.82097507       0.37339240      -0.00000000       0.00357951      -0.01889761
Au       1.99832125       8.04066279      -5.91355600       0.36651972       0.01080933      -0.00484163       0.00253469
Au      -1.99832125       8.04066279      -5.91355600       0.36651972      -0.01080933      -0.00484163       0.00253469
Au       2.05139986       6.11693411      -7.92188201       0.21725941       0.02046839       0.01004330      -0.02749586
Au      -2.05139986       6.11693411      -7.92188201       0.21725941      -0.02046839       0.01004330      -0.02749586
Au       0.00000000      -6.04206696       9.82097507       0.37339240      -0.00000000      -0.00357951       0.01889761
Au       1.99832125      -8.04066279       5.91355600       0.36651972       0.01080933       0.00484163      -0.00253469
Au      -1.99832125      -8.04066279       5.91355600       0.36651972      -0.01080933       0.00484163      -0.00253469
Au       2.05139986      -6.11693411       7.92188201       0.21725941       0.02046839      -0.01004330       0.02749586
Au      -2.05139986      -6.11693411       7.92188201       0.21725941      -0.02046839      -0.01004330       0.02749586
Au      -0.00000000      -6.04206696      -9.82097507       0.37339240      -0.00000000      -0.00357951      -0.01889761
Au       1.99832125      -8.04066279      -5.91355600       0.36651972       0.01080933       0.00484163       0.00253469
Au      -1.99832125      -8.04066279      -5.91355600       0.36651972      -0.01080933       0.00484163       0.00253469
Au       2.05139986      -6.11693411      -7.92188201       0.21725941       0.02046839      -0.01004330      -0.02749586
Au      -2.05139986      -6.11693411      -7.92188201       0.21725941      -0.02046839      -0.01004330      -0.02749586
Au       4.03961885      -0.00000000      11.74025058       0.37476361      -0.00027182      -0.00000000       0.02085175
Au       8.03034209       4.01647517       3.93210568       0.36912694      -0.00555969       0.00613971       0.00595925
Au       8.03034209      -4.01647517       3.93210568       0.36912694      -0.00555969      -0.00613971       0.00595925
Au       4.03961885      -0.00000000     -11.74025058       0.37476361      -0.00027182      -0.00000000      -0.02085175
Au       8.03034209       4.01647517      -3.93210568       0.36912694      -0.00555969       0.00613971      -0.00595925
Au       8.03034209      -4.01647517      -3.93210568       0.36912694      -0.00555969      -0.00613971      -0.00595925
Au      -4.03961885       0.00000000      11.74025058       0.37476361       0.00027182      -0.00000000       0.02085175
Au      -8.03034209       4.01647517       3.93210568       0.36912694       0.00555969       0.00613971       0.00595925
Au      -8.03034209      -4.01647517       3.93210568       0.36912694       0.00555969      -0.00613971       0.00595925
Au      -4.03961885       0.00000000     -11.74025058       0.37476361       0.00027182      -0.00000000      -0.02085175
Au      -8.03034209       4.01647517      -3.93210568       0.36912694       0.00555969       0.00613971      -0.00595925
Au      -8.03034209      -4.01647517      -3.93210568       0.36912694       0.00555969      -0.00613971      -0.00595925
Au       0.00000000       4.03961885      11.74025058       0.37476361      -0.00000000      -0.00027182       0.02085175
Au       4.01647517       8.03034209       3.93210568       0.36912694       0.00613971      -0.00555969       0.00595925
Au      -4.01647517       8.03034209       3.93210568       0.36912694      -0.00613971      -0.00555969       0.00595925
Au       4.09206555       4.09206555       7.91662242       0.21657563       0.00718203       0.00718203       0.01711920
Au      -4.09206555       4.09206555       7.91662242       0.21657563      -0.00718203       0.00718203       0.01711920
Au      -0.00000000       4.03961885     -11.74025058       0.37476361       0.00000000      -0.00027182      -0.02085175
Au       4.01647517       8.03034209      -3.93210568       0.36912694       0.00613971      -0.00555969      -0.00595925
Au      -4.01647517       8.03034209      -3.93210568       0.36912694      -0.00613971      -0.00555969      -0.00595925
Au       4.09206555       4.09206555      -7.91662242       0.21657563       0.00718203       0.00718203      -0.01711920
Au      -4.09206555       4.09206555      -7.91662242       0.21657563      -0.00718203       0.00718203      -0.01711920
Au      -0.00000000      -4.03961885      11.74025058       0.37476361       0.00000000       0.00027182       0.02085175