2406
Properties=species:S:1:pos:R:3:energies:R:1:forces:R:3 energy=206.21726240549836 free_energy=206.21726240549836 pbc="F F F"
Au     -10.01673994     -19.93131208       0.00000000       0.46013622       0.01753278       0.02983551       0.00000000
Au      10.01673994     -19.93131208      -0.00000000       0.46013622      -0.01753278       0.02983551       0.00000000
Au     -10.01673994      19.93131208       0.00000000       0.46013622       0.01753278      -0.02983551      -0.00000000
Au      10.01673994      19.93131208       0.00000000       0.46013622      -0.01753278      -0.02983551      -0.00000000
Au     -10.01673994      -0.00000000     -19.93131208       0.46013622       0.01753278       0.00000000       0.02983551
Au      10.01673994      -0.00000000     -19.93131208       0.46013622      -0.01753278       0.00000000       0.02983551
Au      -0.00000000     -10.01673994     -19.93131208       0.46013622      -0.00000000       0.01753278       0.02983551
Au      -0.00000000      10.01673994     -19.93131208       0.46013622      -0.00000000      -0.01753278       0.02983551
Au     -10.01673994      -0.00000000      19.93131208       0.46013622       0.01753278      -0.00000000      -0.02983551
Au      10.01673994      -0.00000000      19.93131208       0.46013622      -0.01753278      -0.00000000      -0.02983551
Au      -0.00000000     -10.01673994      19.93131208       0.46013622       0.00000000       0.01753278      -0.02983551
Au       0.00000000      10.01673994      19.93131208       0.46013622      -0.00000000      -0.01753278      -0.02983551
Au     -12.04443015     -18.02804746       0.00000000       0.37539791       0.00162350      -0.01617601       0.00000000
Au      12.04443015     -18.02804746       0.00000000       0.37539791      -0.00162350      -0.01617601      -0.00000000
Au     -12.04443015      18.02804746       0.00000000       0.37539791       0.00162350       0.01617601       0.00000000
Au      12.04443015      18.02804746       0.00000000       0.37539791      -0.00162350       0.01617601       0.00000000
Au     -12.04443015      -0.00000000     -18.02804746       0.37539791       0.00162350       0.00000000      -0.01617601
Au      12.04443015      -0.00000000     -18.02804746       0.37539791      -0.00162350      -0.00000000      -0.01617601
Au      -0.00000000     -12.04443015     -18.02804746       0.37539791      -0.00000000       0.00162350      -0.01617601
Au       0.00000000      12.04443015     -18.02804746       0.37539791      -0.00000000      -0.00162350      -0.01617601
Au     -12.04443015      -0.00000000      18.02804746       0.37539791       0.00162350       0.00000000       0.01617601
Au      12.04443015      -0.00000000      18.02804746       0.37539791      -0.00162350       0.00000000       0.01617601
Au       0.00000000     -12.04443015      18.02804746       0.37539791       0.00000000       0.00162350       0.01617601
Au      -0.00000000      12.04443015      18.02804746       0.37539791      -0.00000000      -0.00162350       0.01617601
Au     -14.04876672     -16.04439165       0.00000000       0.37528507      -0.02071159      -0.02416026      -0.00000000
Au      14.04876672     -16.04439165      -0.00000000       0.37528507       0.02071159      -0.02416026       0.00000000
Au     -14.04876672      16.04439165       0.00000000       0.37528507      -0.02071159       0.02416026      -0.00000000
Au      14.04876672      16.04439165       0.00000000       0.37528507       0.02071159       0.02416026      -0.00000000
Au     -14.04876672       0.00000000     -16.04439165       0.37528507      -0.02071159      -0.00000000      -0.02416026
Au      14.04876672      -0.00000000     -16.04439165       0.37528507       0.02071159       0.00000000      -0.02416026
Au      -0.00000000     -14.04876672     -16.04439165       0.37528507      -0.00000000      -0.02071159      -0.02416026
Au      -0.00000000      14.04876672     -16.04439165       0.37528507       0.00000000       0.02071159      -0.02416026
Au     -14.04876672      -0.00000000      16.04439165       0.37528507      -0.02071159       0.00000000       0.02416026
Au      14.04876672      -0.00000000      16.04439165       0.37528507       0.02071159       0.00000000       0.02416026
Au       0.00000000     -14.04876672      16.04439165       0.37528507      -0.00000000      -0.02071159       0.02416026
Au      -0.00000000      14.04876672      16.04439165       0.37528507       0.00000000       0.02071159       0.02416026
Au     -16.04439165     -14.04876672      -0.00000000       0.37528507      -0.02416026      -0.02071159       0.00000000
Au      16.04439165     -14.04876672      -0.00000000       0.37528507       0.02416026      -0.02071159       0.00000000
Au     -16.04439165      14.04876672      -0.00000000       0.37528507      -0.02416026       0.02071159       0.00000000
Au      16.04439165      14.04876672      -0.00000000       0.37528507       0.02416026       0.02071159       0.00000000
Au     -16.04439165      -0.00000000     -14.04876672       0.37528507      -0.02416026      -0.00000000      -0.02071159
Au      16.04439165       0.00000000     -14.04876672       0.37528507       0.02416026      -0.00000000      -0.02071159
Au      -0.00000000     -16.04439165     -14.04876672       0.37528507      -0.00000000      -0.02416026      -0.02071159
Au      -0.00000000      16.04439165     -14.04876672       0.37528507      -0.00000000       0.02416026      -0.02071159
Au     -16.04439165      -0.00000000      14.04876672       0.37528507      -0.02416026       0.00000000       0.02071159
Au      16.04439165      -0.00000000      14.04876672       0.37528507       0.02416026       0.00000000       0.02071159
Au       0.00000000     -16.04439165      14.04876672       0.37528507      -0.00000000      -0.02416026       0.02071159
Au      -0.00000000      16.04439165      14.04876672       0.37528507      -0.00000000       0.02416026       0.02071159
Au     -18.02804746     -12.04443015       0.00000000       0.37539791      -0.01617601       0.00162350      -0.00000000
Au      18.02804746     -12.04443015      -0.00000000       0.37539791       0.01617601       0.00162350       0.00000000
Au     -18.02804746      12.04443015      -0.00000000       0.37539791      -0.01617601      -0.00162350      -0.00000000
Au      18.02804746      12.04443015      -0.00000000       0.37539791       0.01617601      -0.00162350       0.00000000
Au     -18.02804746      -0.00000000     -12.04443015       0.37539791      -0.01617601       0.00000000       0.00162350
Au      18.02804746       0.00000000     -12.04443015       0.37539791       0.01617601      -0.00000000       0.00162350
Au      -0.00000000     -18.02804746     -12.04443015       0.37539791      -0.00000000      -0.01617601       0.00162350
Au      -0.00000000      18.02804746     -12.04443015       0.37539791       0.00000000       0.01617601       0.00162350
Au     -18.02804746      -0.00000000      12.04443015       0.37539791      -0.01617601       0.00000000      -0.00162350
Au      18.02804746       0.00000000      12.04443015       0.37539791       0.01617601      -0.00000000      -0.00162350
Au      -0.00000000     -18.02804746      12.04443015       0.37539791      -0.00000000      -0.01617601      -0.00162350
Au       0.00000000      18.02804746      12.04443015       0.37539791      -0.00000000       0.01617601      -0.00162350
Au     -19.93131208     -10.01673994       0.00000000       0.46013622       0.02983551       0.01753278      -0.00000000
Au      19.93131208     -10.01673994      -0.00000000       0.46013622      -0.02983551       0.01753278      -0.00000000
Au     -19.93131208      10.01673994       0.00000000       0.46013622       0.02983551      -0.01753278       0.00000000
Au      19.93131208      10.01673994      -0.00000000       0.46013622      -0.02983551      -0.01753278       0.00000000
Au     -19.93131208      -0.00000000     -10.01673994       0.46013622       0.02983551       0.00000000       0.01753278
Au      19.93131208       0.00000000     -10.01673994       0.46013622      -0.02983551      -0.00000000       0.01753278
Au      -0.00000000     -19.93131208     -10.01673994       0.46013622      -0.00000000       0.02983551       0.01753278
Au      -0.00000000      19.93131208     -10.01673994       0.46013622       0.00000000      -0.02983551       0.01753278
Au     -19.93131208      -0.00000000      10.01673994       0.46013622       0.02983551       0.00000000      -0.01753278
Au      19.93131208       0.00000000      10.01673994       0.46013622      -0.02983551      -0.00000000      -0.01753278
Au      -0.00000000     -19.93131208      10.01673994       0.46013622       0.00000000       0.02983551      -0.01753278
Au      -0.00000000      19.93131208      10.01673994       0.46013622      -0.00000000      -0.02983551      -0.01753278
Au     -20.00606790      -8.03926589      -1.98108829       0.36772604       0.00323221      -0.00240875       0.00310861
Au     -20.02270515      -6.01753045      -3.99535365       0.37161885      -0.00457125      -0.00488871      -0.00399968
Au     -20.02270515      -3.99535365      -6.01753045       0.37161885      -0.00457125      -0.00399968      -0.00488871
Au     -20.00606790      -1.98108829      -8.03926589       0.36772604       0.00323221       0.00310861      -0.00240875
Au     -18.10726567     -10.10671555      -2.04489139       0.21778470      -0.01617990       0.00673669       0.00364327
Au     -18.13692622      -8.07847883      -4.04677072       0.21581258      -0.00202994      -0.00005473      -0.00280750
Au     -18.15101860      -6.06100849      -6.06100849       0.21619507       0.00812717      -0.00225550      -0.00225550
Au     -18.13692622      -4.04677072      -8.07847883       0.21581258      -0.00202994      -0.00280750      -0.00005473
Au     -18.10726567      -2.04489139     -10.10671555       0.21778470      -0.01617990       0.00364327       0.00673669
Au     -16.12681771     -12.13136221      -2.03871270       0.21458667      -0.00830066       0.00399027      -0.01520866
Au     -16.13679782     -10.11946284      -4.07538186       0.21551399      -0.00584763       0.00135973      -0.00551508
Au     -16.16084706      -8.10392340      -6.08957799       0.21573852       0.00675116       0.00362617       0.00361302
Au     -16.16084706      -6.08957799      -8.10392340       0.21573852       0.00675116       0.00361302       0.00362617
Au     -16.13679782      -4.07538186     -10.11946284       0.21551399      -0.00584763      -0.00551508       0.00135973
Au     -16.12681771      -2.03871270     -12.13136221       0.21458667      -0.00830066      -0.01520866       0.00399027
Au     -14.13637852     -14.13637852      -2.03916674       0.21436872      -0.00175020      -0.00175020      -0.01872912
Au     -14.14655365     -12.14160012      -4.08069608       0.21536299      -0.00445774      -0.00155978      -0.00420872
Au     -14.16653372     -10.13993056      -6.11248995       0.21582315       0.00379704       0.00282565       0.00442806
Au     -14.17569222      -8.12754349      -8.12754349       0.21595842       0.00485856       0.00422403       0.00422403
Au     -14.16653372      -6.11248995     -10.13993056       0.21582315       0.00379704       0.00442806       0.00282565
Au     -14.14655365      -4.08069608     -12.14160012       0.21536299      -0.00445774      -0.00420872      -0.00155978
Au     -14.13637852      -2.03916674     -14.13637852       0.21436872      -0.00175020      -0.01872912      -0.00175020
Au     -12.13136221     -16.12681771      -2.03871270       0.21458667       0.00399027      -0.00830066      -0.01520866
Au     -12.14160012     -14.14655365      -4.08069608       0.21536299      -0.00155978      -0.00445774      -0.00420872
Au     -12.16047418     -12.16047418      -6.11764466       0.21591291       0.00268785       0.00268785       0.00357046
Au     -12.17213072     -10.15611714      -8.14195906       0.21619385       0.00366926       0.00300537       0.00235091
Au     -12.17213072      -8.14195906     -10.15611714       0.21619385       0.00366926       0.00235091       0.00300537
Au     -12.16047418      -6.11764466     -12.16047418       0.21591291       0.00268785       0.00357046       0.00268785
Au     -12.14160012      -4.08069608     -14.14655365       0.21536299      -0.00155978      -0.00420872      -0.00445774
Au     -12.13136221      -2.03871270     -16.12681771       0.21458667       0.00399027      -0.01520866      -0.00830066
Au     -10.10671555     -18.10726567      -2.04489139       0.21778470       0.00673669      -0.01617990       0.00364327
Au     -10.11946284     -16.13679782      -4.07538186       0.21551399       0.00135973      -0.00584763      -0.00551508
Au     -10.13993056     -14.16653372      -6.11248995       0.21582315       0.00282565       0.00379704       0.00442806
Au     -10.15611714     -12.17213072      -8.14195906       0.21619385       0.00300537       0.00366926       0.00235091
Au     -10.16271200     -10.16271200     -10.16271200       0.21631193       0.00258080       0.00258080       0.00258080
Au     -10.15611714      -8.14195906     -12.17213072       0.21619385       0.00300537       0.00235091       0.00366926
Au     -10.13993056      -6.11248995     -14.16653372       0.21582315       0.00282565       0.00442806       0.00379704
Au     -10.11946284      -4.07538186     -16.13679782       0.21551399       0.00135973      -0.00551508      -0.00584763
Au     -10.10671555      -2.04489139     -18.10726567       0.21778470       0.00673669       0.00364327      -0.01617990
Au      -8.03926589     -20.00606790      -1.98108829       0.36772604      -0.00240875       0.00323221       0.00310861
Au      -8.07847883     -18.13692622      -4.04677072       0.21581258      -0.00005473      -0.00202994      -0.00280750
Au      -8.10392340     -16.16084706      -6.08957799       0.21573852       0.00362617       0.00675116       0.00361302
Au      -8.12754349     -14.17569222      -8.12754349       0.21595842       0.00422403       0.00485856       0.00422403
Au      -8.14195906     -12.17213072     -10.15611714       0.21619385       0.00235091       0.00366926       0.00300537
Au      -8.14195906     -10.15611714     -12.17213072       0.21619385       0.00235091       0.00300537       0.00366926
Au      -8.12754349      -8.12754349     -14.17569222       0.21595842       0.00422403       0.00422403       0.00485856
Au      -8.10392340      -6.08957799     -16.16084706       0.21573852       0.00362617       0.00361302       0.00675116
Au      -8.07847883      -4.04677072     -18.13692622       0.21581258      -0.00005473      -0.00280750      -0.00202994
Au      -8.03926589      -1.98108829     -20.00606790       0.36772604      -0.00240875       0.00310861       0.00323221
Au      -6.01753045     -20.02270515      -3.99535365       0.37161885      -0.00488871      -0.00457125      -0.00399968
Au      -6.06100849     -18.15101860      -6.06100849       0.21619507      -0.00225550       0.00812717      -0.00225550
Au      -6.08957799     -16.16084706      -8.10392340       0.21573852       0.00361302       0.00675116       0.00362617
Au      -6.11248995     -14.16653372     -10.13993056       0.21582315       0.00442806       0.00379704       0.00282565
Au      -6.11764466     -12.16047418     -12.16047418       0.21591291       0.00357046       0.00268785       0.00268785
Au      -6.11248995     -10.13993056     -14.16653372       0.21582315       0.00442806       0.00282565       0.00379704
Au      -6.08957799      -8.10392340     -16.16084706       0.21573852       0.00361302       0.00362617       0.00675116
Au      -6.06100849      -6.06100849     -18.15101860       0.21619507      -0.00225550      -0.00225550       0.00812717
Au      -6.01753045      -3.99535365     -20.02270515       0.37161885      -0.00488871      -0.00399968      -0.00457125
Au      -3.99535365     -20.02270515      -6.01753045       0.37161885      -0.00399968      -0.00457125      -0.00488871
Au      -4.04677072     -18.13692622      -8.07847883       0.21581258      -0.00280750      -0.00202994      -0.00005473
Au      -4.07538186     -16.13679782     -10.11946284       0.21551399      -0.00551508      -0.00584763       0.00135973
Au      -4.08069608     -14.14655365     -12.14160012       0.21536299      -0.00420872      -0.00445774      -0.00155978
Au      -4.08069608     -12.14160012     -14.14655365       0.21536299      -0.00420872      -0.00155978      -0.00445774
Au      -4.07538186     -10.11946284     -16.13679782       0.21551399      -0.00551508       0.00135973      -0.00584763
Au      -4.04677072      -8.07847883     -18.13692622       0.21581258      -0.00280750      -0.00005473      -0.00202994
Au      -3.99535365      -6.01753045     -20.02270515       0.37161885      -0.00399968      -0.00488871      -0.00457125
Au      -1.98108829     -20.00606790      -8.03926589       0.36772604       0.00310861       0.00323221      -0.00240875
Au      -2.04489139     -18.10726567     -10.10671555       0.21778470       0.00364327      -0.01617990       0.00673669
Au      -2.03871270     -16.12681771     -12.13136221       0.21458667      -0.01520866      -0.00830066       0.00399027
Au      -2.03916674     -14.13637852     -14.13637852       0.21436872      -0.01872912      -0.00175020      -0.00175020
Au      -2.03871270     -12.13136221     -16.12681771       0.21458667      -0.01520866       0.00399027      -0.00830066
Au      -2.04489139     -10.10671555     -18.10726567       0.21778470       0.00364327       0.00673669      -0.01617990
Au      -1.98108829      -8.03926589     -20.00606790       0.36772604       0.00310861      -0.00240875       0.00323221
Au     -20.00606790      -8.03926589       1.98108829       0.36772604       0.00323221      -0.00240875      -0.00310861
Au     -20.02270515      -6.01753045       3.99535365       0.37161885      -0.00457125      -0.00488871       0.00399968
Au     -20.02270515      -3.99535365       6.01753045       0.37161885      -0.00457125      -0.00399968       0.00488871
Au     -20.00606790      -1.98108829       8.03926589       0.36772604       0.00323221       0.00310861       0.00240875
Au     -18.10726567     -10.10671555       2.04489139       0.21778470      -0.01617990       0.00673669      -0.00364327
Au     -18.13692622      -8.07847883       4.04677072       0.21581258      -0.00202994      -0.00005473       0.00280750
Au     -18.15101860      -6.06100849       6.06100849       0.21619507       0.00812717      -0.00225550       0.00225550
Au     -18.13692622      -4.04677072       8.07847883       0.21581258      -0.00202994      -0.00280750       0.00005473
Au     -18.10726567      -2.04489139      10.10671555       0.21778470      -0.01617990       0.00364327      -0.00673669
Au     -16.12681771     -12.13136221       2.03871270       0.21458667      -0.00830066       0.00399027       0.01520866
Au     -16.13679782     -10.11946284       4.07538186       0.21551399      -0.00584763       0.00135973       0.00551508
Au     -16.16084706      -8.10392340       6.08957799       0.21573852       0.00675116       0.00362617      -0.00361302
Au     -16.16084706      -6.08957799       8.10392340       0.21573852       0.00675116       0.00361302      -0.00362617
Au     -16.13679782      -4.07538186      10.11946284       0.21551399      -0.00584763      -0.00551508      -0.00135973
Au     -16.12681771      -2.03871270      12.13136221       0.21458667      -0.00830066      -0.01520866      -0.00399027
Au     -14.13637852     -14.13637852       2.03916674       0.21436872      -0.00175020      -0.00175020       0.01872912
Au     -14.14655365     -12.14160012       4.08069608       0.21536299      -0.00445774      -0.00155978       0.00420872
Au     -14.16653372     -10.13993056       6.11248995       0.21582315       0.00379704       0.00282565      -0.00442806
Au     -14.17569222      -8.12754349       8.12754349       0.21595842       0.00485856       0.00422403      -0.00422403
Au     -14.16653372      -6.11248995      10.13993056       0.21582315       0.00379704       0.00442806      -0.00282565
Au     -14.14655365      -4.08069608      12.14160012       0.21536299      -0.00445774      -0.00420872       0.00155978
Au     -14.13637852      -2.03916674      14.13637852       0.21436872      -0.00175020      -0.01872912       0.00175020
Au     -12.13136221     -16.12681771       2.03871270       0.21458667       0.00399027      -0.00830066       0.01520866
Au     -12.14160012     -14.14655365       4.08069608       0.21536299      -0.00155978      -0.00445774       0.00420872
Au     -12.16047418     -12.16047418       6.11764466       0.21591291       0.00268785       0.00268785      -0.00357046
Au     -12.17213072     -10.15611714       8.14195906       0.21619385       0.00366926       0.00300537      -0.00235091
Au     -12.17213072      -8.14195906      10.15611714       0.21619385       0.00366926       0.00235091      -0.00300537
Au     -12.16047418      -6.11764466      12.16047418       0.21591291       0.00268785       0.00357046      -0.00268785
Au     -12.14160012      -4.08069608      14.14655365       0.21536299      -0.00155978      -0.00420872       0.00445774
Au     -12.13136221      -2.03871270      16.12681771       0.21458667       0.00399027      -0.01520866       0.00830066
Au     -10.10671555     -18.10726567       2.04489139       0.21778470       0.00673669      -0.01617990      -0.00364327
Au     -10.11946284     -16.13679782       4.07538186       0.21551399       0.00135973      -0.00584763       0.00551508
Au     -10.13993056     -14.16653372       6.11248995       0.21582315       0.00282565       0.00379704      -0.00442806
Au     -10.15611714     -12.17213072       8.14195906       0.21619385       0.00300537       0.00366926      -0.00235091
Au     -10.16271200     -10.16271200      10.16271200       0.21631193       0.00258080       0.00258080      -0.00258080
Au     -10.15611714      -8.14195906      12.17213072       0.21619385       0.00300537       0.00235091      -0.00366926
Au     -10.13993056      -6.11248995      14.16653372       0.21582315       0.00282565       0.00442806      -0.00379704
Au     -10.11946284      -4.07538186      16.13679782       0.21551399       0.00135973      -0.00551508       0.00584763
Au     -10.10671555      -2.04489139      18.10726567       0.21778470       0.00673669       0.00364327       0.01617990
Au      -8.03926589     -20.00606790       1.98108829       0.36772604      -0.00240875       0.00323221      -0.00310861
Au      -8.07847883     -18.13692622       4.04677072       0.21581258      -0.00005473      -0.00202994       0.00280750
Au      -8.10392340     -16.16084706       6.08957799       0.21573852       0.00362617       0.00675116      -0.00361302
Au      -8.12754349     -14.17569222       8.12754349       0.21595842       0.00422403       0.00485856      -0.00422403
Au      -8.14195906     -12.17213072      10.15611714       0.21619385       0.00235091       0.00366926      -0.00300537
Au      -8.14195906     -10.15611714      12.17213072       0.21619385       0.00235091       0.00300537      -0.00366926
Au      -8.12754349      -8.12754349      14.17569222       0.21595842       0.00422403       0.00422403      -0.00485856
Au      -8.10392340      -6.08957799      16.16084706       0.21573852       0.00362617       0.00361302      -0.00675116
Au      -8.07847883      -4.04677072      18.13692622       0.21581258      -0.00005473      -0.00280750       0.00202994
Au      -8.03926589      -1.98108829      20.00606790       0.36772604      -0.00240875       0.00310861      -0.00323221
Au      -6.01753045     -20.02270515       3.99535365       0.37161885      -0.00488871      -0.00457125       0.00399968
Au      -6.06100849     -18.15101860       6.06100849       0.21619507      -0.00225550       0.00812717       0.00225550
Au      -6.08957799     -16.16084706       8.10392340       0.21573852       0.00361302       0.00675116      -0.00362617
Au      -6.11248995     -14.16653372      10.13993056       0.21582315       0.00442806       0.00379704      -0.00282565
Au      -6.11764466     -12.16047418      12.16047418       0.21591291       0.00357046       0.00268785      -0.00268785
Au      -6.11248995     -10.13993056      14.16653372       0.21582315       0.00442806       0.00282565      -0.00379704
Au      -6.08957799      -8.10392340      16.16084706       0.21573852       0.00361302       0.00362617      -0.00675116
Au      -6.06100849      -6.06100849      18.15101860       0.21619507      -0.00225550      -0.00225550      -0.00812717
Au      -6.01753045      -3.99535365      20.02270515       0.37161885      -0.00488871      -0.00399968       0.00457125
Au      -3.99535365     -20.02270515       6.01753045       0.37161885      -0.00399968      -0.00457125       0.00488871
Au      -4.04677072     -18.13692622       8.07847883       0.21581258      -0.00280750      -0.00202994       0.00005473
Au      -4.07538186     -16.13679782      10.11946284       0.21551399      -0.00551508      -0.00584763      -0.00135973
Au      -4.08069608     -14.14655365      12.14160012       0.21536299      -0.00420872      -0.00445774       0.00155978
Au      -4.08069608     -12.14160012      14.14655365       0.21536299      -0.00420872      -0.00155978       0.00445774
Au      -4.07538186     -10.11946284      16.13679782       0.21551399      -0.00551508       0.00135973       0.00584763
Au      -4.04677072      -8.07847883      18.13692622       0.21581258      -0.00280750      -0.00005473       0.00202994
Au      -3.99535365      -6.01753045      20.02270515       0.37161885      -0.00399968      -0.00488871       0.00457125
Au      -1.98108829     -20.00606790       8.03926589       0.36772604       0.00310861       0.00323221       0.00240875
Au      -2.04489139     -18.10726567      10.10671555       0.21778470       0.00364327      -0.01617990      -0.00673669
Au      -2.03871270     -16.12681771      12.13136221       0.21458667      -0.01520866      -0.00830066      -0.00399027
Au      -2.03916674     -14.13637852      14.13637852       0.21436872      -0.01872912      -0.00175020       0.00175020
Au      -2.03871270     -12.13136221      16.12681771       0.21458667      -0.01520866       0.00399027       0.00830066
Au      -2.04489139     -10.10671555      18.10726567       0.21778470       0.00364327       0.00673669       0.01617990
Au      -1.98108829      -8.03926589      20.00606790       0.36772604       0.00310861      -0.00240875      -0.00323221
Au      20.00606790      -8.03926589      -1.98108829       0.36772604      -0.00323221      -0.00240875       0.00310861
Au      20.02270515      -6.01753045      -3.99535365       0.37161885       0.00457125      -0.00488871      -0.00399968
Au      20.02270515      -3.99535365      -6.01753045       0.37161885       0.00457125      -0.00399968      -0.00488871
Au      20.00606790      -1.98108829      -8.03926589       0.36772604      -0.00323221       0.00310861      -0.00240875
Au      18.10726567     -10.10671555      -2.04489139       0.21778470       0.01617990       0.00673669       0.00364327
Au      18.13692622      -8.07847883      -4.04677072       0.21581258       0.00202994      -0.00005473      -0.00280750
Au      18.15101860      -6.06100849      -6.06100849       0.21619507      -0.00812717      -0.00225550      -0.00225550
Au      18.13692622      -4.04677072      -8.07847883       0.21581258       0.00202994      -0.00280750      -0.00005473
Au      18.10726567      -2.04489139     -10.10671555       0.21778470       0.01617990       0.00364327       0.00673669
Au      16.12681771     -12.13136221      -2.03871270       0.21458667       0.00830066       0.00399027      -0.01520866
Au      16.13679782     -10.11946284      -4.07538186       0.21551399       0.00584763       0.00135973      -0.00551508
Au      16.16084706      -8.10392340      -6.08957799       0.21573852      -0.00675116       0.00362617       0.00361302
Au      16.16084706      -6.08957799      -8.10392340       0.21573852      -0.00675116       0.00361302       0.00362617
Au      16.13679782      -4.07538186     -10.11946284       0.21551399       0.00584763      -0.00551508       0.00135973
Au      16.12681771      -2.03871270     -12.13136221       0.21458667       0.00830066      -0.01520866       0.00399027
Au      14.13637852     -14.13637852      -2.03916674       0.21436872       0.00175020      -0.00175020      -0.01872912
Au      14.14655365     -12.14160012      -4.08069608       0.21536299       0.00445774      -0.00155978      -0.00420872
Au      14.16653372     -10.13993056      -6.11248995       0.21582315      -0.00379704       0.00282565       0.00442806
Au      14.17569222      -8.12754349      -8.12754349       0.21595842      -0.00485856       0.00422403       0.00422403
Au      14.16653372      -6.11248995     -10.13993056       0.21582315      -0.00379704       0.00442806       0.00282565
Au      14.14655365      -4.08069608     -12.14160012       0.21536299       0.00445774      -0.00420872      -0.00155978
Au      14.13637852      -2.03916674     -14.13637852       0.21436872       0.00175020      -0.01872912      -0.00175020
Au      12.13136221     -16.12681771      -2.03871270       0.21458667      -0.00399027      -0.00830066      -0.01520866
Au      12.14160012     -14.14655365      -4.08069608       0.21536299       0.00155978      -0.00445774      -0.00420872
Au      12.16047418     -12.16047418      -6.11764466       0.21591291      -0.00268785       0.00268785       0.00357046
Au      12.17213072     -10.15611714      -8.14195906       0.21619385      -0.00366926       0.00300537       0.00235091