586
Properties=species:S:1:pos:R:3:energies:R:1:forces:R:3 energy=80.6903976694658 free_energy=80.6903976694658 pbc="F F F"
Au      -5.95851868     -11.87516832      -0.00000000       0.45818671      -0.02602594      -0.03399656       0.00000000
Au       5.95851868     -11.87516832      -0.00000000       0.45818671       0.02602594      -0.03399656      -0.00000000
Au      -5.95851868      11.87516832      -0.00000000       0.45818671      -0.02602594       0.03399656       0.00000000
Au       5.95851868      11.87516832       0.00000000       0.45818671       0.02602594       0.03399656       0.00000000
Au      -5.95851868       0.00000000     -11.87516832       0.45818671      -0.02602594      -0.00000000      -0.03399656
Au       5.95851868       0.00000000     -11.87516832       0.45818671       0.02602594      -0.00000000      -0.03399656
Au      -0.00000000      -5.95851868     -11.87516832       0.45818671       0.00000000      -0.02602594      -0.03399656
Au       0.00000000       5.95851868     -11.87516832       0.45818671      -0.00000000       0.02602594      -0.03399656
Au      -5.95851868      -0.00000000      11.87516832       0.45818671      -0.02602594       0.00000000       0.03399656
Au       5.95851868       0.00000000      11.87516832       0.45818671       0.02602594       0.00000000       0.03399656
Au      -0.00000000      -5.95851868      11.87516832       0.45818671       0.00000000      -0.02602594       0.03399656
Au      -0.00000000       5.95851868      11.87516832       0.45818671       0.00000000       0.02602594       0.03399656
Au      -7.97847100      -9.96806900       0.00000000       0.37507750      -0.03534908      -0.03400599      -0.00000000
Au       7.97847100      -9.96806900      -0.00000000       0.37507750       0.03534908      -0.03400599       0.00000000
Au      -7.97847100       9.96806900       0.00000000       0.37507750      -0.03534908       0.03400599       0.00000000
Au       7.97847100       9.96806900       0.00000000       0.37507750       0.03534908       0.03400599      -0.00000000
Au      -7.97847100       0.00000000      -9.96806900       0.37507750      -0.03534908      -0.00000000      -0.03400599
Au       7.97847100      -0.00000000      -9.96806900       0.37507750       0.03534908      -0.00000000      -0.03400599
Au      -0.00000000      -7.97847100      -9.96806900       0.37507750       0.00000000      -0.03534908      -0.03400599
Au       0.00000000       7.97847100      -9.96806900       0.37507750      -0.00000000       0.03534908      -0.03400599
Au      -7.97847100       0.00000000       9.96806900       0.37507750      -0.03534908      -0.00000000       0.03400599
Au       7.97847100      -0.00000000       9.96806900       0.37507750       0.03534908       0.00000000       0.03400599
Au      -0.00000000      -7.97847100       9.96806900       0.37507750      -0.00000000      -0.03534908       0.03400599
Au       0.00000000       7.97847100       9.96806900       0.37507750      -0.00000000       0.03534908       0.03400599
Au      -9.96806900      -7.97847100       0.00000000       0.37507750      -0.03400599      -0.03534908       0.00000000
Au       9.96806900      -7.97847100      -0.00000000       0.37507750       0.03400599      -0.03534908       0.00000000
Au      -9.96806900       7.97847100      -0.00000000       0.37507750      -0.03400599       0.03534908       0.00000000
Au       9.96806900       7.97847100      -0.00000000       0.37507750       0.03400599       0.03534908       0.00000000
Au      -9.96806900      -0.00000000      -7.97847100       0.37507750      -0.03400599       0.00000000      -0.03534908
Au       9.96806900       0.00000000      -7.97847100       0.37507750       0.03400599      -0.00000000      -0.03534908
Au      -0.00000000      -9.96806900      -7.97847100       0.37507750      -0.00000000      -0.03400599      -0.03534908
Au      -0.00000000       9.96806900      -7.97847100       0.37507750      -0.00000000       0.03400599      -0.03534908
Au      -9.96806900       0.00000000       7.97847100       0.37507750      -0.03400599       0.00000000       0.03534908
Au       9.96806900      -0.00000000       7.97847100       0.37507750       0.03400599       0.00000000       0.03534908
Au      -0.00000000      -9.96806900       7.97847100       0.37507750      -0.00000000      -0.03400599       0.03534908
Au      -0.00000000       9.96806900       7.97847100       0.37507750       0.00000000       0.03400599       0.03534908
Au     -11.87516832      -5.95851868      -0.00000000       0.45818671      -0.03399656      -0.02602594       0.00000000
Au      11.87516832      -5.95851868       0.00000000       0.45818671       0.03399656      -0.02602594      -0.00000000
Au     -11.87516832       5.95851868      -0.00000000       0.45818671      -0.03399656       0.02602594       0.00000000
Au      11.87516832       5.95851868      -0.00000000       0.45818671       0.03399656       0.02602594      -0.00000000
Au     -11.87516832      -0.00000000      -5.95851868       0.45818671      -0.03399656      -0.00000000      -0.02602594
Au      11.87516832       0.00000000      -5.95851868       0.45818671       0.03399656      -0.00000000      -0.02602594
Au       0.00000000     -11.87516832      -5.95851868       0.45818671      -0.00000000      -0.03399656      -0.02602594
Au      -0.00000000      11.87516832      -5.95851868       0.45818671      -0.00000000       0.03399656      -0.02602594
Au     -11.87516832      -0.00000000       5.95851868       0.45818671      -0.03399656       0.00000000       0.02602594
Au      11.87516832      -0.00000000       5.95851868       0.45818671       0.03399656       0.00000000       0.02602594
Au      -0.00000000     -11.87516832       5.95851868       0.45818671      -0.00000000      -0.03399656       0.02602594
Au      -0.00000000      11.87516832       5.95851868       0.45818671       0.00000000       0.03399656       0.02602594
Au     -11.96241193      -3.98562689      -1.98027040       0.36588811      -0.00712123      -0.01704735      -0.00165959
Au     -11.96241193      -1.98027040      -3.98562689       0.36588811      -0.00712123      -0.00165959      -0.01704735
Au     -10.06342810      -6.05535856      -2.05344191       0.21845507      -0.00559804      -0.01504010       0.01614150
Au     -10.08508406      -4.04691525      -4.04691525       0.21535703      -0.00498965       0.00303471       0.00303471
Au     -10.06342810      -2.05344191      -6.05535856       0.21845507      -0.00559804       0.01614150      -0.01504010
Au      -8.06856341      -8.06856341      -2.05031776       0.21500799      -0.00974459      -0.00974459       0.02198281
Au      -8.08378754      -6.07947502      -4.08021873       0.21440917      -0.00414732       0.00199235       0.01220213
Au      -8.08378754      -4.08021873      -6.07947502       0.21440917      -0.00414732       0.01220213       0.00199235
Au      -8.06856341      -2.05031776      -8.06856341       0.21500799      -0.00974459       0.02198281      -0.00974459
Au      -6.05535856     -10.06342810      -2.05344191       0.21845507      -0.01504010      -0.00559804       0.01614150
Au      -6.07947502      -8.08378754      -4.08021873       0.21440917       0.00199235      -0.00414732       0.01220213
Au      -6.09343042      -6.09343042      -6.09343042       0.21379445       0.00514423       0.00514423       0.00514423
Au      -6.07947502      -4.08021873      -8.08378754       0.21440917       0.00199235       0.01220213      -0.00414732
Au      -6.05535856      -2.05344191     -10.06342810       0.21845507      -0.01504010       0.01614150      -0.00559804
Au      -3.98562689     -11.96241193      -1.98027040       0.36588811      -0.01704735      -0.00712123      -0.00165959
Au      -4.04691525     -10.08508406      -4.04691525       0.21535703       0.00303471      -0.00498965       0.00303471
Au      -4.08021873      -8.08378754      -6.07947502       0.21440917       0.01220213      -0.00414732       0.00199235
Au      -4.08021873      -6.07947502      -8.08378754       0.21440917       0.01220213       0.00199235      -0.00414732
Au      -4.04691525      -4.04691525     -10.08508406       0.21535703       0.00303471       0.00303471      -0.00498965
Au      -3.98562689      -1.98027040     -11.96241193       0.36588811      -0.01704735      -0.00165959      -0.00712123
Au      -1.98027040     -11.96241193      -3.98562689       0.36588811      -0.00165959      -0.00712123      -0.01704735
Au      -2.05344191     -10.06342810      -6.05535856       0.21845507       0.01614150      -0.00559804      -0.01504010
Au      -2.05031776      -8.06856341      -8.06856341       0.21500799       0.02198281      -0.00974459      -0.00974459
Au      -2.05344191      -6.05535856     -10.06342810       0.21845507       0.01614150      -0.01504010      -0.00559804
Au      -1.98027040      -3.98562689     -11.96241193       0.36588811      -0.00165959      -0.01704735      -0.00712123
Au     -11.96241193      -3.98562689       1.98027040       0.36588811      -0.00712123      -0.01704735       0.00165959
Au     -11.96241193      -1.98027040       3.98562689       0.36588811      -0.00712123      -0.00165959       0.01704735
Au     -10.06342810      -6.05535856       2.05344191       0.21845507      -0.00559804      -0.01504010      -0.01614150
Au     -10.08508406      -4.04691525       4.04691525       0.21535703      -0.00498965       0.00303471      -0.00303471
Au     -10.06342810      -2.05344191       6.05535856       0.21845507      -0.00559804       0.01614150       0.01504010
Au      -8.06856341      -8.06856341       2.05031776       0.21500799      -0.00974459      -0.00974459      -0.02198281
Au      -8.08378754      -6.07947502       4.08021873       0.21440917      -0.00414732       0.00199235      -0.01220213
Au      -8.08378754      -4.08021873       6.07947502       0.21440917      -0.00414732       0.01220213      -0.00199235
Au      -8.06856341      -2.05031776       8.06856341       0.21500799      -0.00974459       0.02198281       0.00974459
Au      -6.05535856     -10.06342810       2.05344191       0.21845507      -0.01504010      -0.00559804      -0.01614150
Au      -6.07947502      -8.08378754       4.08021873       0.21440917       0.00199235      -0.00414732      -0.01220213
Au      -6.09343042      -6.09343042       6.09343042       0.21379445       0.00514423       0.00514423      -0.00514423
Au      -6.07947502      -4.08021873       8.08378754       0.21440917       0.00199235       0.01220213       0.00414732
Au      -6.05535856      -2.05344191      10.06342810       0.21845507      -0.01504010       0.01614150       0.00559804
Au      -3.98562689     -11.96241193       1.98027040       0.36588811      -0.01704735      -0.00712123       0.00165959
Au      -4.04691525     -10.08508406       4.04691525       0.21535703       0.00303471      -0.00498965      -0.00303471
Au      -4.08021873      -8.08378754       6.07947502       0.21440917       0.01220213      -0.00414732      -0.00199235
Au      -4.08021873      -6.07947502       8.08378754       0.21440917       0.01220213       0.00199235       0.00414732
Au      -4.04691525      -4.04691525      10.08508406       0.21535703       0.00303471       0.00303471       0.00498965
Au      -3.98562689      -1.98027040      11.96241193       0.36588811      -0.01704735      -0.00165959       0.00712123
Au      -1.98027040     -11.96241193       3.98562689       0.36588811      -0.00165959      -0.00712123       0.01704735
Au      -2.05344191     -10.06342810       6.05535856       0.21845507       0.01614150      -0.00559804       0.01504010
Au      -2.05031776      -8.06856341       8.06856341       0.21500799       0.02198281      -0.00974459       0.00974459
Au      -2.05344191      -6.05535856      10.06342810       0.21845507       0.01614150      -0.01504010       0.00559804
Au      -1.98027040      -3.98562689      11.96241193       0.36588811      -0.00165959      -0.01704735       0.00712123
Au      11.96241193      -3.98562689      -1.98027040       0.36588811       0.00712123      -0.01704735      -0.00165959
Au      11.96241193      -1.98027040      -3.98562689       0.36588811       0.00712123      -0.00165959      -0.01704735
Au      10.06342810      -6.05535856      -2.05344191       0.21845507       0.00559804      -0.01504010       0.01614150
Au      10.08508406      -4.04691525      -4.04691525       0.21535703       0.00498965       0.00303471       0.00303471
Au      10.06342810      -2.05344191      -6.05535856       0.21845507       0.00559804       0.01614150      -0.01504010
Au       8.06856341      -8.06856341      -2.05031776       0.21500799       0.00974459      -0.00974459       0.02198281
Au       8.08378754      -6.07947502      -4.08021873       0.21440917       0.00414732       0.00199235       0.01220213
Au       8.08378754      -4.08021873      -6.07947502       0.21440917       0.00414732       0.01220213       0.00199235
Au       8.06856341      -2.05031776      -8.06856341       0.21500799       0.00974459       0.02198281      -0.00974459
Au       6.05535856     -10.06342810      -2.05344191       0.21845507       0.01504010      -0.00559804       0.01614150
Au       6.07947502      -8.08378754      -4.08021873       0.21440917      -0.00199235      -0.00414732       0.01220213
Au       6.09343042      -6.09343042      -6.09343042       0.21379445      -0.00514423       0.00514423       0.00514423
Au       6.07947502      -4.08021873      -8.08378754       0.21440917      -0.00199235       0.01220213      -0.00414732
Au       6.05535856      -2.05344191     -10.06342810       0.21845507       0.01504010       0.01614150      -0.00559804
Au       3.98562689     -11.96241193      -1.98027040       0.36588811       0.01704735      -0.00712123      -0.00165959
Au       4.04691525     -10.08508406      -4.04691525       0.21535703      -0.00303471      -0.00498965       0.00303471
Au       4.08021873      -8.08378754      -6.07947502       0.21440917      -0.01220213      -0.00414732       0.00199235
Au       4.08021873      -6.07947502      -8.08378754       0.21440917      -0.01220213       0.00199235      -0.00414732
Au       4.04691525      -4.04691525     -10.08508406       0.21535703      -0.00303471       0.00303471      -0.00498965
Au       3.98562689      -1.98027040     -11.96241193       0.36588811       0.01704735      -0.00165959      -0.00712123
Au       1.98027040     -11.96241193      -3.98562689       0.36588811       0.00165959      -0.00712123      -0.01704735
Au       2.05344191     -10.06342810      -6.05535856       0.21845507      -0.01614150      -0.00559804      -0.01504010
Au       2.05031776      -8.06856341      -8.06856341       0.21500799      -0.02198281      -0.00974459      -0.00974459
Au       2.05344191      -6.05535856     -10.06342810       0.21845507      -0.01614150      -0.01504010      -0.00559804
Au       1.98027040      -3.98562689     -11.96241193       0.36588811       0.00165959      -0.01704735      -0.00712123
Au      11.96241193      -3.98562689       1.98027040       0.36588811       0.00712123      -0.01704735       0.00165959
Au      11.96241193      -1.98027040       3.98562689       0.36588811       0.00712123      -0.00165959       0.01704735
Au      10.06342810      -6.05535856       2.05344191       0.21845507       0.00559804      -0.01504010      -0.01614150
Au      10.08508406      -4.04691525       4.04691525       0.21535703       0.00498965       0.00303471      -0.00303471
Au      10.06342810      -2.05344191       6.05535856       0.21845507       0.00559804       0.01614150       0.01504010
Au       8.06856341      -8.06856341       2.05031776       0.21500799       0.00974459      -0.00974459      -0.02198281
Au       8.08378754      -6.07947502       4.08021873       0.21440917       0.00414732       0.00199235      -0.01220213
Au       8.08378754      -4.08021873       6.07947502       0.21440917       0.00414732       0.01220213      -0.00199235
Au       8.06856341      -2.05031776       8.06856341       0.21500799       0.00974459       0.02198281       0.00974459
Au       6.05535856     -10.06342810       2.05344191       0.21845507       0.01504010      -0.00559804      -0.01614150
Au       6.07947502      -8.08378754       4.08021873       0.21440917      -0.00199235      -0.00414732      -0.01220213
Au       6.09343042      -6.09343042       6.09343042       0.21379445      -0.00514423       0.00514423      -0.00514423
Au       6.07947502      -4.08021873       8.08378754       0.21440917      -0.00199235       0.01220213       0.00414732
Au       6.05535856      -2.05344191      10.06342810       0.21845507       0.01504010       0.01614150       0.00559804
Au       3.98562689     -11.96241193       1.98027040       0.36588811       0.01704735      -0.00712123       0.00165959
Au       4.04691525     -10.08508406       4.04691525       0.21535703      -0.00303471      -0.00498965      -0.00303471
Au       4.08021873      -8.08378754       6.07947502       0.21440917      -0.01220213      -0.00414732      -0.00199235
Au       4.08021873      -6.07947502       8.08378754       0.21440917      -0.01220213       0.00199235       0.00414732
Au       4.04691525      -4.04691525      10.08508406       0.21535703      -0.00303471       0.00303471       0.00498965
Au       3.98562689      -1.98027040      11.96241193       0.36588811       0.01704735      -0.00165959       0.00712123
Au       1.98027040     -11.96241193       3.98562689       0.36588811       0.00165959      -0.00712123       0.01704735
Au       2.05344191     -10.06342810       6.05535856       0.21845507      -0.01614150      -0.00559804       0.01504010
Au       2.05031776      -8.06856341       8.06856341       0.21500799      -0.02198281      -0.00974459       0.00974459
Au       2.05344191      -6.05535856      10.06342810       0.21845507      -0.01614150      -0.01504010       0.00559804
Au       1.98027040      -3.98562689      11.96241193       0.36588811       0.00165959      -0.01704735       0.00712123
Au     -11.96241193       3.98562689      -1.98027040       0.36588811      -0.00712123       0.01704735      -0.00165959
Au     -11.96241193       1.98027040      -3.98562689       0.36588811      -0.00712123       0.00165959      -0.01704735
Au     -10.06342810       6.05535856      -2.05344191       0.21845507      -0.00559804       0.01504010       0.01614150
Au     -10.08508406       4.04691525      -4.04691525       0.21535703      -0.00498965      -0.00303471       0.00303471
Au     -10.06342810       2.05344191      -6.05535856       0.21845507      -0.00559804      -0.01614150      -0.01504010
Au      -8.06856341       8.06856341      -2.05031776       0.21500799      -0.00974459       0.00974459       0.02198281
Au      -8.08378754       6.07947502      -4.08021873       0.21440917      -0.00414732      -0.00199235       0.01220213
Au      -8.08378754       4.08021873      -6.07947502       0.21440917      -0.00414732      -0.01220213       0.00199235
Au      -8.06856341       2.05031776      -8.06856341       0.21500799      -0.00974459      -0.02198281      -0.00974459
Au      -6.05535856      10.06342810      -2.05344191       0.21845507      -0.01504010       0.00559804       0.01614150
Au      -6.07947502       8.08378754      -4.08021873       0.21440917       0.00199235       0.00414732       0.01220213
Au      -6.09343042       6.09343042      -6.09343042       0.21379445       0.00514423      -0.00514423       0.00514423
Au      -6.07947502       4.08021873      -8.08378754       0.21440917       0.00199235      -0.01220213      -0.00414732
Au      -6.05535856       2.05344191     -10.06342810       0.21845507      -0.01504010      -0.01614150      -0.00559804
Au      -3.98562689      11.96241193      -1.98027040       0.36588811      -0.01704735       0.00712123      -0.00165959
Au      -4.04691525      10.08508406      -4.04691525       0.21535703       0.00303471       0.00498965       0.00303471
Au      -4.08021873       8.08378754      -6.07947502       0.21440917       0.01220213       0.00414732       0.00199235
Au      -4.08021873       6.07947502      -8.08378754       0.21440917       0.01220213      -0.00199235      -0.00414732
Au      -4.04691525       4.04691525     -10.08508406       0.21535703       0.00303471      -0.00303471      -0.00498965
Au      -3.98562689       1.98027040     -11.96241193       0.36588811      -0.01704735       0.00165959      -0.00712123
Au      -1.98027040      11.96241193      -3.98562689       0.36588811      -0.00165959       0.00712123      -0.01704735
Au      -2.05344191      10.06342810      -6.05535856       0.21845507       0.01614150       0.00559804      -0.01504010
Au      -2.05031776       8.06856341      -8.06856341       0.21500799       0.02198281       0.00974459      -0.00974459
Au      -2.05344191       6.05535856     -10.06342810       0.21845507       0.01614150       0.01504010      -0.00559804
Au      -1.98027040       3.98562689     -11.96241193       0.36588811      -0.00165959       0.01704735      -0.00712123
Au     -11.96241193       3.98562689       1.98027040       0.36588811      -0.00712123       0.01704735       0.00165959
Au     -11.96241193       1.98027040       3.98562689       0.36588811      -0.00712123       0.00165959       0.01704735
Au     -10.06342810       6.05535856       2.05344191       0.21845507      -0.00559804       0.01504010      -0.01614150
Au     -10.08508406       4.04691525       4.04691525       0.21535703      -0.00498965      -0.00303471      -0.00303471
Au     -10.06342810       2.05344191       6.05535856       0.21845507      -0.00559804      -0.01614150       0.01504010
Au      -8.06856341       8.06856341       2.05031776       0.21500799      -0.00974459       0.00974459      -0.02198281
Au      -8.08378754       6.07947502       4.08021873       0.21440917      -0.00414732      -0.00199235      -0.01220213
Au      -8.08378754       4.08021873       6.07947502       0.21440917      -0.00414732      -0.01220213      -0.00199235
Au      -8.06856341       2.05031776       8.06856341       0.21500799      -0.00974459      -0.02198281       0.00974459
Au      -6.05535856      10.06342810       2.05344191       0.21845507      -0.01504010       0.00559804      -0.01614150
Au      -6.07947502       8.08378754       4.08021873       0.21440917       0.00199235       0.00414732      -0.01220213
Au      -6.09343042       6.09343042       6.09343042       0.21379445       0.00514423      -0.00514423      -0.00514423
Au      -6.07947502       4.08021873       8.08378754       0.21440917       0.00199235      -0.01220213       0.00414732
Au      -6.05535856       2.05344191      10.06342810       0.21845507      -0.01504010      -0.01614150       0.00559804
Au      -3.98562689      11.96241193       1.98027040       0.36588811      -0.01704735       0.00712123       0.00165959
Au      -4.04691525      10.08508406       4.04691525       0.21535703       0.00303471       0.00498965      -0.00303471
Au      -4.08021873       8.08378754       6.07947502       0.21440917       0.01220213       0.00414732      -0.00199235
Au      -4.08021873       6.07947502       8.08378754       0.21440917       0.01220213      -0.00199235       0.00414732
Au      -4.04691525       4.04691525      10.08508406       0.21535703       0.00303471      -0.00303471       0.00498965
Au      -3.98562689       1.98027040      11.96241193       0.36588811      -0.01704735       0.00165959       0.00712123
Au      -1.98027040      11.96241193       3.98562689       0.36588811      -0.00165959       0.00712123       0.01704735
Au      -2.05344191      10.06342810       6.05535856       0.21845507       0.01614150       0.00559804       0.01504010
Au      -2.05031776       8.06856341       8.06856341       0.21500799       0.02198281       0.00974459       0.00974459
Au      -2.05344191       6.05535856      10.06342810       0.21845507       0.01614150       0.01504010       0.00559804
Au      -1.98027040       3.98562689      11.96241193       0.36588811      -0.00165959       0.01704735       0.00712123
Au      11.96241193       3.98562689      -1.98027040       0.36588811       0.00712123       0.01704735      -0.00165959
Au      11.96241193       1.98027040      -3.98562689       0.36588811       0.00712123       0.00165959      -0.01704735
Au      10.06342810       6.05535856      -2.05344191       0.21845507       0.00559804       0.01504010       0.01614150
Au      10.08508406       4.04691525      -4.04691525       0.21535703       0.00498965      -0.00303471       0.00303471
Au      10.06342810       2.05344191      -6.05535856       0.21845507       0.00559804      -0.01614150      -0.01504010
Au       8.06856341       8.06856341      -2.05031776       0.21500799       0.00974459       0.00974459       0.02198281
Au       8.08378754       6.07947502      -4.08021873       0.21440917       0.00414732      -0.00199235       0.01220213
Au       8.08378754       4.08021873      -6.07947502       0.21440917       0.00414732      -0.01220213       0.00199235
Au       8.06856341       2.05031776      -8.06856341       0.21500799       0.00974459      -0.02198281      -0.00974459
Au       6.05535856      10.06342810      -2.05344191       0.21845507       0.01504010       0.00559804       0.01614150
Au       6.07947502       8.08378754      -4.08021873       0.21440917      -0.00199235       0.00414732       0.01220213
Au       6.09343042       6.09343042      -6.09343042       0.21379445      -0.00514423      -0.00514423       0.00514423
Au       6.07947502       4.08021873      -8.08378754       0.21440917      -0.00199235      -0.01220213      -0.00414732
Au       6.05535856       2.05344191     -10.06342810       0.21845507       0.01504010      -0.01614150      -0.00559804
Au       3.98562689      11.96241193      -1.98027040       0.36588811       0.01704735       0.00712123      -0.00165959
Au       4.04691525      10.08508406      -4.04691525       0.21535703      -0.00303471       0.00498965       0.00303471
Au       4.08021873       8.08378754      -6.07947502       0.21440917      -0.01220213       0.00414732       0.00199235
Au       4.08021873       6.07947502      -8.08378754       0.21440917      -0.01220213      -0.00199235      -0.00414732
Au       4.04691525       4.04691525     -10.08508406       0.21535703      -0.00303471      -0.00303471      -0.00498965
Au       3.98562689       1.98027040     -11.96241193       0.36588811       0.01704735       0.00165959      -0.00712123
Au       1.98027040      11.96241193      -3.98562689       0.36588811       0.00165959       0.00712123      -0.01704735
Au       2.05344191      10.06342810      -6.05535856       0.21845507      -0.01614150       0.00559804      -0.01504010
Au       2.05031776       8.06856341      -8.06856341       0.21500799      -0.02198281       0.00974459      -0.00974459
Au       2.05344191       6.05535856     -10.06342810       0.21845507      -0.01614150       0.01504010      -0.00559804
Au       1.98027040       3.98562689     -11.96241193       0.36588811       0.00165959       0.01704735      -0.00712123
Au      11.96241193       3.98562689       1.98027040       0.36588811       0.00712123       0.01704735       0.00165959
Au      11.96241193       1.98027040       3.98562689       0.36588811       0.00712123       0.00165959       0.01704735
Au      10.06342810       6.05535856       2.05344191       0.21845507       0.00559804       0.01504010      -0.01614150
Au      10.08508406       4.04691525       4.04691525       0.21535703       0.00498965      -0.00303471      -0.00303471
Au      10.06342810       2.05344191       6.05535856       0.21845507       0.00559804      -0.01614150       0.01504010
Au       8.06856341       8.06856341       2.05031776       0.21500799       0.00974459       0.00974459      -0.02198281
Au       8.08378754       6.07947502       4.08021873       0.21440917       0.00414732      -0.00199235      -0.01220213
Au       8.08378754       4.08021873       6.07947502       0.21440917       0.00414732      -0.01220213      -0.00199235
Au       8.06856341       2.05031776       8.06856341       0.21500799       0.00974459      -0.02198281       0.00974459
Au       6.05535856      10.06342810       2.05344191       0.21845507       0.01504010       0.00559804      -0.01614150
Au       6.07947502       8.08378754       4.08021873       0.21440917      -0.00199235       0.00414732      -0.01220213
Au       6.09343042       6.09343042       6.09343042       0.21379445      -0.00514423      -0.00514423      -0.00514423
Au       6.07947502       4.08021873       8.08378754       0.21440917      -0.00199235      -0.01220213       0.00414732
Au       6.05535856       2.05344191      10.06342810       0.21845507       0.01504010      -0.01614150       0.00559804
Au       3.98562689      11.96241193       1.98027040       0.36588811       0.01704735       0.00712123       0.00165959
Au       4.04691525      10.08508406       4.04691525       0.21535703      -0.00303471       0.00498965      -0.00303471
Au       4.08021873       8.08378754       6.07947502       0.21440917      -0.01220213       0.00414732      -0.00199235
Au       4.08021873       6.07947502       8.08378754       0.21440917      -0.01220213      -0.00199235       0.00414732
Au       4.04691525       4.04691525      10.08508406       0.21535703      -0.00303471      -0.00303471       0.00498965
Au       3.98562689       1.98027040      11.96241193       0.36588811       0.01704735       0.00165959       0.00712123
Au       1.98027040      11.96241193       3.98562689       0.36588811       0.00165959       0.00712123       0.01704735