1289
Properties=species:S:1:pos:R:3:energies:R:1:forces:R:3 energy=136.25440030456895 free_energy=136.25440030456895 pbc="F F F"
Au      -7.97838058     -15.87869703       0.00000000       0.45788341      -0.02443058      -0.04175193      -0.00000000
Au       7.97838058     -15.87869703      -0.00000000       0.45788341       0.02443058      -0.04175193       0.00000000
Au      -7.97838058      15.87869703       0.00000000       0.45788341      -0.02443058       0.04175193      -0.00000000
Au       7.97838058      15.87869703      -0.00000000       0.45788341       0.02443058       0.04175193       0.00000000
Au      -7.97838058      -0.00000000     -15.87869703       0.45788341      -0.02443058      -0.00000000      -0.04175193
Au       7.97838058       0.00000000     -15.87869703       0.45788341       0.02443058      -0.00000000      -0.04175193
Au      -0.00000000      -7.97838058     -15.87869703       0.45788341       0.00000000      -0.02443058      -0.04175193
Au      -0.00000000       7.97838058     -15.87869703       0.45788341      -0.00000000       0.02443058      -0.04175193
Au      -7.97838058      -0.00000000      15.87869703       0.45788341      -0.02443058      -0.00000000       0.04175193
Au       7.97838058      -0.00000000      15.87869703       0.45788341       0.02443058      -0.00000000       0.04175193
Au      -0.00000000      -7.97838058      15.87869703       0.45788341       0.00000000      -0.02443058       0.04175193
Au      -0.00000000       7.97838058      15.87869703       0.45788341       0.00000000       0.02443058       0.04175193
Au     -10.00739188     -13.98180458       0.00000000       0.37511648      -0.01180640      -0.02511246      -0.00000000
Au      10.00739188     -13.98180458      -0.00000000       0.37511648       0.01180640      -0.02511246       0.00000000
Au     -10.00739188      13.98180458       0.00000000       0.37511648      -0.01180640       0.02511246      -0.00000000
Au      10.00739188      13.98180458      -0.00000000       0.37511648       0.01180640       0.02511246       0.00000000
Au     -10.00739188      -0.00000000     -13.98180458       0.37511648      -0.01180640      -0.00000000      -0.02511246
Au      10.00739188      -0.00000000     -13.98180458       0.37511648       0.01180640      -0.00000000      -0.02511246
Au      -0.00000000     -10.00739188     -13.98180458       0.37511648      -0.00000000      -0.01180640      -0.02511246
Au      -0.00000000      10.00739188     -13.98180458       0.37511648       0.00000000       0.01180640      -0.02511246
Au     -10.00739188       0.00000000      13.98180458       0.37511648      -0.01180640      -0.00000000       0.02511246
Au      10.00739188      -0.00000000      13.98180458       0.37511648       0.01180640       0.00000000       0.02511246
Au      -0.00000000     -10.00739188      13.98180458       0.37511648       0.00000000      -0.01180640       0.02511246
Au       0.00000000      10.00739188      13.98180458       0.37511648      -0.00000000       0.01180640       0.02511246
Au     -12.00074844     -12.00074844       0.00000000       0.37480547      -0.01661213      -0.01661213       0.00000000
Au      12.00074844     -12.00074844       0.00000000       0.37480547       0.01661213      -0.01661213       0.00000000
Au     -12.00074844      12.00074844       0.00000000       0.37480547      -0.01661213       0.01661213      -0.00000000
Au      12.00074844      12.00074844      -0.00000000       0.37480547       0.01661213       0.01661213      -0.00000000
Au     -12.00074844      -0.00000000     -12.00074844       0.37480547      -0.01661213      -0.00000000      -0.01661213
Au      12.00074844      -0.00000000     -12.00074844       0.37480547       0.01661213       0.00000000      -0.01661213
Au       0.00000000     -12.00074844     -12.00074844       0.37480547      -0.00000000      -0.01661213      -0.01661213
Au      -0.00000000      12.00074844     -12.00074844       0.37480547      -0.00000000       0.01661213      -0.01661213
Au     -12.00074844       0.00000000      12.00074844       0.37480547      -0.01661213      -0.00000000       0.01661213
Au      12.00074844      -0.00000000      12.00074844       0.37480547       0.01661213      -0.00000000       0.01661213
Au      -0.00000000     -12.00074844      12.00074844       0.37480547      -0.00000000      -0.01661213       0.01661213
Au      -0.00000000      12.00074844      12.00074844       0.37480547       0.00000000       0.01661213       0.01661213
Au     -13.98180458     -10.00739188      -0.00000000       0.37511648      -0.02511246      -0.01180640       0.00000000
Au      13.98180458     -10.00739188       0.00000000       0.37511648       0.02511246      -0.01180640      -0.00000000
Au     -13.98180458      10.00739188       0.00000000       0.37511648      -0.02511246       0.01180640      -0.00000000
Au      13.98180458      10.00739188      -0.00000000       0.37511648       0.02511246       0.01180640       0.00000000
Au     -13.98180458       0.00000000     -10.00739188       0.37511648      -0.02511246      -0.00000000      -0.01180640
Au      13.98180458      -0.00000000     -10.00739188       0.37511648       0.02511246       0.00000000      -0.01180640
Au      -0.00000000     -13.98180458     -10.00739188       0.37511648       0.00000000      -0.02511246      -0.01180640
Au      -0.00000000      13.98180458     -10.00739188       0.37511648       0.00000000       0.02511246      -0.01180640
Au     -13.98180458      -0.00000000      10.00739188       0.37511648      -0.02511246      -0.00000000       0.01180640
Au      13.98180458       0.00000000      10.00739188       0.37511648       0.02511246      -0.00000000       0.01180640
Au       0.00000000     -13.98180458      10.00739188       0.37511648      -0.00000000      -0.02511246       0.01180640
Au      -0.00000000      13.98180458      10.00739188       0.37511648       0.00000000       0.02511246       0.01180640
Au     -15.87869703      -7.97838058       0.00000000       0.45788341      -0.04175193      -0.02443058       0.00000000
Au      15.87869703      -7.97838058      -0.00000000       0.45788341       0.04175193      -0.02443058       0.00000000
Au     -15.87869703       7.97838058       0.00000000       0.45788341      -0.04175193       0.02443058       0.00000000
Au      15.87869703       7.97838058      -0.00000000       0.45788341       0.04175193       0.02443058       0.00000000
Au     -15.87869703       0.00000000      -7.97838058       0.45788341      -0.04175193      -0.00000000      -0.02443058
Au      15.87869703       0.00000000      -7.97838058       0.45788341       0.04175193      -0.00000000      -0.02443058
Au       0.00000000     -15.87869703      -7.97838058       0.45788341      -0.00000000      -0.04175193      -0.02443058
Au      -0.00000000      15.87869703      -7.97838058       0.45788341       0.00000000       0.04175193      -0.02443058
Au     -15.87869703       0.00000000       7.97838058       0.45788341      -0.04175193       0.00000000       0.02443058
Au      15.87869703      -0.00000000       7.97838058       0.45788341       0.04175193       0.00000000       0.02443058
Au       0.00000000     -15.87869703       7.97838058       0.45788341       0.00000000      -0.04175193       0.02443058
Au       0.00000000      15.87869703       7.97838058       0.45788341      -0.00000000       0.04175193       0.02443058
Au     -15.97018985      -6.00234845      -1.98092404       0.36615305      -0.01353185      -0.01357296      -0.00177891
Au     -15.98884928      -3.99186382      -3.99186382       0.36922566      -0.00678442      -0.00533142      -0.00533142
Au     -15.97018985      -1.98092404      -6.00234845       0.36615305      -0.01353185      -0.00177891      -0.01357296
Au     -14.07086538      -8.07254216      -2.05235586       0.21832090      -0.01465706      -0.01065611       0.00419788
Au     -14.10944654      -6.05648868      -4.05391617       0.21593257      -0.00007666      -0.00280171       0.00755511
Au     -14.10944654      -4.05391617      -6.05648868       0.21593257      -0.00007666       0.00755511      -0.00280171
Au     -14.07086538      -2.05235586      -8.07254216       0.21832090      -0.01465706       0.00419788      -0.01065611
Au     -12.08818020     -10.09155399      -2.04784524       0.21479398      -0.01113055      -0.01168127       0.00597246
Au     -12.10959748      -8.09791742      -4.09179758       0.21543613      -0.00408293       0.00073637       0.01761184
Au     -12.12353597      -6.09357130      -6.09357130       0.21415391      -0.01118360       0.00628859       0.00628859
Au     -12.10959748      -4.09179758      -8.09791742       0.21543613      -0.00408293       0.01761184       0.00073637
Au     -12.08818020      -2.04784524     -10.09155399       0.21479398      -0.01113055       0.00597246      -0.01168127
Au     -10.09155399     -12.08818020      -2.04784524       0.21479398      -0.01168127      -0.01113055       0.00597246
Au     -10.11354370     -10.11354370      -4.09522447       0.21494667      -0.00469952      -0.00469952       0.01793617
Au     -10.12820417      -8.12043760      -6.11601753       0.21365186      -0.01394253      -0.00416138       0.00651260
Au     -10.12820417      -6.11601753      -8.12043760       0.21365186      -0.01394253       0.00651260      -0.00416138
Au     -10.11354370      -4.09522447     -10.11354370       0.21494667      -0.00469952       0.01793617      -0.00469952
Au     -10.09155399      -2.04784524     -12.08818020       0.21479398      -0.01168127       0.00597246      -0.01113055
Au      -8.07254216     -14.07086538      -2.05235586       0.21832090      -0.01065611      -0.01465706       0.00419788
Au      -8.09791742     -12.10959748      -4.09179758       0.21543613       0.00073637      -0.00408293       0.01761184
Au      -8.12043760     -10.12820417      -6.11601753       0.21365186      -0.00416138      -0.01394253       0.00651260
Au      -8.12921932      -8.12921932      -8.12921932       0.21346119      -0.00474793      -0.00474793      -0.00474793
Au      -8.12043760      -6.11601753     -10.12820417       0.21365186      -0.00416138       0.00651260      -0.01394253
Au      -8.09791742      -4.09179758     -12.10959748       0.21543613       0.00073637       0.01761184      -0.00408293
Au      -8.07254216      -2.05235586     -14.07086538       0.21832090      -0.01065611       0.00419788      -0.01465706
Au      -6.00234845     -15.97018985      -1.98092404       0.36615305      -0.01357296      -0.01353185      -0.00177891
Au      -6.05648868     -14.10944654      -4.05391617       0.21593257      -0.00280171      -0.00007666       0.00755511
Au      -6.09357130     -12.12353597      -6.09357130       0.21415391       0.00628859      -0.01118360       0.00628859
Au      -6.11601753     -10.12820417      -8.12043760       0.21365186       0.00651260      -0.01394253      -0.00416138
Au      -6.11601753      -8.12043760     -10.12820417       0.21365186       0.00651260      -0.00416138      -0.01394253
Au      -6.09357130      -6.09357130     -12.12353597       0.21415391       0.00628859       0.00628859      -0.01118360
Au      -6.05648868      -4.05391617     -14.10944654       0.21593257      -0.00280171       0.00755511      -0.00007666
Au      -6.00234845      -1.98092404     -15.97018985       0.36615305      -0.01357296      -0.00177891      -0.01353185
Au      -3.99186382     -15.98884928      -3.99186382       0.36922566      -0.00533142      -0.00678442      -0.00533142
Au      -4.05391617     -14.10944654      -6.05648868       0.21593257       0.00755511      -0.00007666      -0.00280171
Au      -4.09179758     -12.10959748      -8.09791742       0.21543613       0.01761184      -0.00408293       0.00073637
Au      -4.09522447     -10.11354370     -10.11354370       0.21494667       0.01793617      -0.00469952      -0.00469952
Au      -4.09179758      -8.09791742     -12.10959748       0.21543613       0.01761184       0.00073637      -0.00408293
Au      -4.05391617      -6.05648868     -14.10944654       0.21593257       0.00755511      -0.00280171      -0.00007666
Au      -3.99186382      -3.99186382     -15.98884928       0.36922566      -0.00533142      -0.00533142      -0.00678442
Au      -1.98092404     -15.97018985      -6.00234845       0.36615305      -0.00177891      -0.01353185      -0.01357296
Au      -2.05235586     -14.07086538      -8.07254216       0.21832090       0.00419788      -0.01465706      -0.01065611
Au      -2.04784524     -12.08818020     -10.09155399       0.21479398       0.00597246      -0.01113055      -0.01168127
Au      -2.04784524     -10.09155399     -12.08818020       0.21479398       0.00597246      -0.01168127      -0.01113055
Au      -2.05235586      -8.07254216     -14.07086538       0.21832090       0.00419788      -0.01065611      -0.01465706
Au      -1.98092404      -6.00234845     -15.97018985       0.36615305      -0.00177891      -0.01357296      -0.01353185
Au     -15.97018985      -6.00234845       1.98092404       0.36615305      -0.01353185      -0.01357296       0.00177891
Au     -15.98884928      -3.99186382       3.99186382       0.36922566      -0.00678442      -0.00533142       0.00533142
Au     -15.97018985      -1.98092404       6.00234845       0.36615305      -0.01353185      -0.00177891       0.01357296
Au     -14.07086538      -8.07254216       2.05235586       0.21832090      -0.01465706      -0.01065611      -0.00419788
Au     -14.10944654      -6.05648868       4.05391617       0.21593257      -0.00007666      -0.00280171      -0.00755511
Au     -14.10944654      -4.05391617       6.05648868       0.21593257      -0.00007666       0.00755511       0.00280171
Au     -14.07086538      -2.05235586       8.07254216       0.21832090      -0.01465706       0.00419788       0.01065611
Au     -12.08818020     -10.09155399       2.04784524       0.21479398      -0.01113055      -0.01168127      -0.00597246
Au     -12.10959748      -8.09791742       4.09179758       0.21543613      -0.00408293       0.00073637      -0.01761184
Au     -12.12353597      -6.09357130       6.09357130       0.21415391      -0.01118360       0.00628859      -0.00628859
Au     -12.10959748      -4.09179758       8.09791742       0.21543613      -0.00408293       0.01761184      -0.00073637
Au     -12.08818020      -2.04784524      10.09155399       0.21479398      -0.01113055       0.00597246       0.01168127
Au     -10.09155399     -12.08818020       2.04784524       0.21479398      -0.01168127      -0.01113055      -0.00597246
Au     -10.11354370     -10.11354370       4.09522447       0.21494667      -0.00469952      -0.00469952      -0.01793617
Au     -10.12820417      -8.12043760       6.11601753       0.21365186      -0.01394253      -0.00416138      -0.00651260
Au     -10.12820417      -6.11601753       8.12043760       0.21365186      -0.01394253       0.00651260       0.00416138
Au     -10.11354370      -4.09522447      10.11354370       0.21494667      -0.00469952       0.01793617       0.00469952
Au     -10.09155399      -2.04784524      12.08818020       0.21479398      -0.01168127       0.00597246       0.01113055
Au      -8.07254216     -14.07086538       2.05235586       0.21832090      -0.01065611      -0.01465706      -0.00419788
Au      -8.09791742     -12.10959748       4.09179758       0.21543613       0.00073637      -0.00408293      -0.01761184
Au      -8.12043760     -10.12820417       6.11601753       0.21365186      -0.00416138      -0.01394253      -0.00651260
Au      -8.12921932      -8.12921932       8.12921932       0.21346119      -0.00474793      -0.00474793       0.00474793
Au      -8.12043760      -6.11601753      10.12820417       0.21365186      -0.00416138       0.00651260       0.01394253
Au      -8.09791742      -4.09179758      12.10959748       0.21543613       0.00073637       0.01761184       0.00408293
Au      -8.07254216      -2.05235586      14.07086538       0.21832090      -0.01065611       0.00419788       0.01465706
Au      -6.00234845     -15.97018985       1.98092404       0.36615305      -0.01357296      -0.01353185       0.00177891
Au      -6.05648868     -14.10944654       4.05391617       0.21593257      -0.00280171      -0.00007666      -0.00755511
Au      -6.09357130     -12.12353597       6.09357130       0.21415391       0.00628859      -0.01118360      -0.00628859
Au      -6.11601753     -10.12820417       8.12043760       0.21365186       0.00651260      -0.01394253       0.00416138
Au      -6.11601753      -8.12043760      10.12820417       0.21365186       0.00651260      -0.00416138       0.01394253
Au      -6.09357130      -6.09357130      12.12353597       0.21415391       0.00628859       0.00628859       0.01118360
Au      -6.05648868      -4.05391617      14.10944654       0.21593257      -0.00280171       0.00755511       0.00007666
Au      -6.00234845      -1.98092404      15.97018985       0.36615305      -0.01357296      -0.00177891       0.01353185
Au      -3.99186382     -15.98884928       3.99186382       0.36922566      -0.00533142      -0.00678442       0.00533142
Au      -4.05391617     -14.10944654       6.05648868       0.21593257       0.00755511      -0.00007666       0.00280171
Au      -4.09179758     -12.10959748       8.09791742       0.21543613       0.01761184      -0.00408293      -0.00073637
Au      -4.09522447     -10.11354370      10.11354370       0.21494667       0.01793617      -0.00469952       0.00469952
Au      -4.09179758      -8.09791742      12.10959748       0.21543613       0.01761184       0.00073637       0.00408293
Au      -4.05391617      -6.05648868      14.10944654       0.21593257       0.00755511      -0.00280171       0.00007666
Au      -3.99186382      -3.99186382      15.98884928       0.36922566      -0.00533142      -0.00533142       0.00678442
Au      -1.98092404     -15.97018985       6.00234845       0.36615305      -0.00177891      -0.01353185       0.01357296
Au      -2.05235586     -14.07086538       8.07254216       0.21832090       0.00419788      -0.01465706       0.01065611
Au      -2.04784524     -12.08818020      10.09155399       0.21479398       0.00597246      -0.01113055       0.01168127
Au      -2.04784524     -10.09155399      12.08818020       0.21479398       0.00597246      -0.01168127       0.01113055
Au      -2.05235586      -8.07254216      14.07086538       0.21832090       0.00419788      -0.01065611       0.01465706
Au      -1.98092404      -6.00234845      15.97018985       0.36615305      -0.00177891      -0.01357296       0.01353185
Au      15.97018985      -6.00234845      -1.98092404       0.36615305       0.01353185      -0.01357296      -0.00177891
Au      15.98884928      -3.99186382      -3.99186382       0.36922566       0.00678442      -0.00533142      -0.00533142
Au      15.97018985      -1.98092404      -6.00234845       0.36615305       0.01353185      -0.00177891      -0.01357296
Au      14.07086538      -8.07254216      -2.05235586       0.21832090       0.01465706      -0.01065611       0.00419788
Au      14.10944654      -6.05648868      -4.05391617       0.21593257       0.00007666      -0.00280171       0.00755511
Au      14.10944654      -4.05391617      -6.05648868       0.21593257       0.00007666       0.00755511      -0.00280171
Au      14.07086538      -2.05235586      -8.07254216       0.21832090       0.01465706       0.00419788      -0.01065611
Au      12.08818020     -10.09155399      -2.04784524       0.21479398       0.01113055      -0.01168127       0.00597246
Au      12.10959748      -8.09791742      -4.09179758       0.21543613       0.00408293       0.00073637       0.01761184
Au      12.12353597      -6.09357130      -6.09357130       0.21415391       0.01118360       0.00628859       0.00628859
Au      12.10959748      -4.09179758      -8.09791742       0.21543613       0.00408293       0.01761184       0.00073637
Au      12.08818020      -2.04784524     -10.09155399       0.21479398       0.01113055       0.00597246      -0.01168127
Au      10.09155399     -12.08818020      -2.04784524       0.21479398       0.01168127      -0.01113055       0.00597246
Au      10.11354370     -10.11354370      -4.09522447       0.21494667       0.00469952      -0.00469952       0.01793617
Au      10.12820417      -8.12043760      -6.11601753       0.21365186       0.01394253      -0.00416138       0.00651260
Au      10.12820417      -6.11601753      -8.12043760       0.21365186       0.01394253       0.00651260      -0.00416138
Au      10.11354370      -4.09522447     -10.11354370       0.21494667       0.00469952       0.01793617      -0.00469952
Au      10.09155399      -2.04784524     -12.08818020       0.21479398       0.01168127       0.00597246      -0.01113055
Au       8.07254216     -14.07086538      -2.05235586       0.21832090       0.01065611      -0.01465706       0.00419788
Au       8.09791742     -12.10959748      -4.09179758       0.21543613      -0.00073637      -0.00408293       0.01761184
Au       8.12043760     -10.12820417      -6.11601753       0.21365186       0.00416138      -0.01394253       0.00651260
Au       8.12921932      -8.12921932      -8.12921932       0.21346119       0.00474793      -0.00474793      -0.00474793
Au       8.12043760      -6.11601753     -10.12820417       0.21365186       0.00416138       0.00651260      -0.01394253
Au       8.09791742      -4.09179758     -12.10959748       0.21543613      -0.00073637       0.01761184      -0.00408293
Au       8.07254216      -2.05235586     -14.07086538       0.21832090       0.01065611       0.00419788      -0.01465706
Au       6.00234845     -15.97018985      -1.98092404       0.36615305       0.01357296      -0.01353185      -0.00177891
Au       6.05648868     -14.10944654      -4.05391617       0.21593257       0.00280171      -0.00007666       0.00755511
Au       6.09357130     -12.12353597      -6.09357130       0.21415391      -0.00628859      -0.01118360       0.00628859
Au       6.11601753     -10.12820417      -8.12043760       0.21365186      -0.00651260      -0.01394253      -0.00416138
Au       6.11601753      -8.12043760     -10.12820417       0.21365186      -0.00651260      -0.00416138      -0.01394253
Au       6.09357130      -6.09357130     -12.12353597       0.21415391      -0.00628859       0.00628859      -0.01118360
Au       6.05648868      -4.05391617     -14.10944654       0.21593257       0.00280171       0.00755511      -0.00007666
Au       6.00234845      -1.98092404     -15.97018985       0.36615305       0.01357296      -0.00177891      -0.01353185
Au       3.99186382     -15.98884928      -3.99186382       0.36922566       0.00533142      -0.00678442      -0.00533142
Au       4.05391617     -14.10944654      -6.05648868       0.21593257      -0.00755511      -0.00007666      -0.00280171
Au       4.09179758     -12.10959748      -8.09791742       0.21543613      -0.01761184      -0.00408293       0.00073637
Au       4.09522447     -10.11354370     -10.11354370       0.21494667      -0.01793617      -0.00469952      -0.00469952
Au       4.09179758      -8.09791742     -12.10959748       0.21543613      -0.01761184       0.00073637      -0.00408293
Au       4.05391617      -6.05648868     -14.10944654       0.21593257      -0.00755511      -0.00280171      -0.00007666
Au       3.99186382      -3.99186382     -15.98884928       0.36922566       0.00533142      -0.00533142      -0.00678442
Au       1.98092404     -15.97018985      -6.00234845       0.36615305       0.00177891      -0.01353185      -0.01357296
Au       2.05235586     -14.07086538      -8.07254216       0.21832090      -0.00419788      -0.01465706      -0.01065611
Au       2.04784524     -12.08818020     -10.09155399       0.21479398      -0.00597246      -0.01113055      -0.01168127
Au       2.04784524     -10.09155399     -12.08818020       0.21479398      -0.00597246      -0.01168127      -0.01113055
Au       2.05235586      -8.07254216     -14.07086538       0.21832090      -0.00419788      -0.01065611      -0.01465706
Au       1.98092404      -6.00234845     -15.97018985       0.36615305       0.00177891      -0.01357296      -0.01353185
Au      15.97018985      -6.00234845       1.98092404       0.36615305       0.01353185      -0.01357296       0.00177891
Au      15.98884928      -3.99186382       3.99186382       0.36922566       0.00678442      -0.00533142       0.00533142
Au      15.97018985      -1.98092404       6.00234845       0.36615305       0.01353185      -0.00177891       0.01357296
Au      14.07086538      -8.07254216       2.05235586       0.21832090       0.01465706      -0.01065611      -0.00419788
Au      14.10944654      -6.05648868       4.05391617       0.21593257       0.00007666      -0.00280171      -0.00755511
Au      14.10944654      -4.05391617       6.05648868       0.21593257       0.00007666       0.00755511       0.00280171
Au      14.07086538      -2.05235586       8.07254216       0.21832090       0.01465706       0.00419788       0.01065611
Au      12.08818020     -10.09155399       2.04784524       0.21479398       0.01113055      -0.01168127      -0.00597246
Au      12.10959748      -8.09791742       4.09179758       0.21543613       0.00408293       0.00073637      -0.01761184
Au      12.12353597      -6.09357130       6.09357130       0.21415391       0.01118360       0.00628859      -0.00628859
Au      12.10959748      -4.09179758       8.09791742       0.21543613       0.00408293       0.01761184      -0.00073637
Au      12.08818020      -2.04784524      10.09155399       0.21479398       0.01113055       0.00597246       0.01168127
Au      10.09155399     -12.08818020       2.04784524       0.21479398       0.01168127      -0.01113055      -0.00597246
Au      10.11354370     -10.11354370       4.09522447       0.21494667       0.00469952      -0.00469952      -0.01793617
Au      10.12820417      -8.12043760       6.11601753       0.21365186       0.01394253      -0.00416138      -0.00651260
Au      10.12820417      -6.11601753       8.12043760       0.21365186       0.01394253       0.00651260       0.00416138
Au      10.11354370      -4.09522447      10.11354370       0.21494667       0.00469952       0.01793617       0.00469952
Au      10.09155399      -2.04784524      12.08818020       0.21479398       0.01168127       0.00597246       0.01113055
Au       8.07254216     -14.07086538       2.05235586       0.21832090       0.01065611      -0.01465706      -0.00419788
Au       8.09791742     -12.10959748       4.09179758       0.21543613      -0.00073637      -0.00408293      -0.01761184
Au       8.12043760     -10.12820417       6.11601753       0.21365186       0.00416138      -0.01394253      -0.00651260
Au       8.12921932      -8.12921932       8.12921932       0.21346119       0.00474793      -0.00474793       0.00474793
Au       8.12043760      -6.11601753      10.12820417       0.21365186       0.00416138       0.00651260       0.01394253
Au       8.09791742      -4.09179758      12.10959748       0.21543613      -0.00073637       0.01761184       0.00408293
Au       8.07254216      -2.05235586      14.07086538       0.21832090       0.01065611       0.00419788       0.01465706
Au       6.00234845     -15.97018985       1.98092404       0.36615305       0.01357296      -0.01353185       0.00177891
Au       6.05648868     -14.10944654       4.05391617       0.21593257       0.00280171      -0.00007666      -0.00755511
Au       6.09357130     -12.12353597       6.09357130       0.21415391      -0.00628859      -0.01118360      -0.00628859
Au       6.11601753     -10.12820417       8.12043760       0.21365186      -0.00651260      -0.01394253       0.00416138
Au       6.11601753      -8.12043760      10.12820417       0.21365186      -0.00651260      -0.00416138       0.01394253
Au       6.09357130      -6.09357130      12.12353597       0.21415391      -0.00628859       0.00628859       0.01118360
Au       6.05648868      -4.05391617      14.10944654       0.21593257       0.00280171       0.00755511       0.00007666
Au       6.00234845      -1.98092404      15.97018985       0.36615305       0.01357296      -0.00177891       0.01353185
Au       3.99186382     -15.98884928       3.99186382       0.36922566       0.00533142      -0.00678442       0.00533142
Au       4.05391617     -14.10944654       6.05648868       0.21593257      -0.00755511      -0.00007666       0.00280171
Au       4.09179758     -12.10959748       8.09791742       0.21543613      -0.01761184      -0.00408293      -0.00073637
Au       4.09522447     -10.11354370      10.11354370       0.21494667      -0.01793617      -0.00469952       0.00469952
Au       4.09179758      -8.09791742      12.10959748       0.21543613      -0.01761184       0.00073637       0.00408293
Au       4.05391617      -6.05648868      14.10944654       0.21593257      -0.00755511      -0.00280171       0.00007666
Au       3.99186382      -3.99186382      15.98884928       0.36922566       0.00533142      -0.00533142       0.00678442
Au       1.98092404     -15.97018985       6.00234845       0.36615305       0.00177891      -0.01353185       0.01357296
Au       2.05235586     -14.07086538       8.07254216       0.21832090      -0.00419788      -0.01465706       0.01065611
Au       2.04784524     -12.08818020      10.09155399       0.21479398      -0.00597246      -0.01113055       0.01168127
Au       2.04784524     -10.09155399      12.08818020       0.21479398      -0.00597246      -0.01168127       0.01113055
Au       2.05235586      -8.07254216      14.07086538       0.21832090      -0.00419788      -0.01065611       0.01465706
Au       1.98092404      -6.00234845      15.97018985       0.36615305       0.00177891      -0.01357296       0.01353185