201
Properties=species:S:1:pos:R:3:energies:R:1:forces:R:3 energy=39.70447730372041 free_energy=39.70447730372041 pbc="F F F"
Au      -3.94613281      -7.88171029       0.00000000       0.45966702      -0.01454348       0.00478003       0.00000000
Au       3.94613281      -7.88171029      -0.00000000       0.45966702       0.01454348       0.00478003      -0.00000000
Au      -3.94613281       7.88171029       0.00000000       0.45966702      -0.01454348      -0.00478003      -0.00000000
Au       3.94613281       7.88171029      -0.00000000       0.45966702       0.01454348      -0.00478003       0.00000000
Au      -3.94613281      -0.00000000      -7.88171029       0.45966702      -0.01454348       0.00000000       0.00478003
Au       3.94613281       0.00000000      -7.88171029       0.45966702       0.01454348      -0.00000000       0.00478003
Au      -0.00000000      -3.94613281      -7.88171029       0.45966702       0.00000000      -0.01454348       0.00478003
Au      -0.00000000       3.94613281      -7.88171029       0.45966702       0.00000000       0.01454348       0.00478003
Au      -3.94613281      -0.00000000       7.88171029       0.45966702      -0.01454348       0.00000000      -0.00478003
Au       3.94613281      -0.00000000       7.88171029       0.45966702       0.01454348       0.00000000      -0.00478003
Au      -0.00000000      -3.94613281       7.88171029       0.45966702      -0.00000000      -0.01454348      -0.00478003
Au       0.00000000       3.94613281       7.88171029       0.45966702      -0.00000000       0.01454348      -0.00478003
Au      -5.96255364      -5.96255364       0.00000000       0.37437189      -0.01855954      -0.01855954      -0.00000000
Au       5.96255364      -5.96255364      -0.00000000       0.37437189       0.01855954      -0.01855954       0.00000000
Au      -5.96255364       5.96255364       0.00000000       0.37437189      -0.01855954       0.01855954       0.00000000
Au       5.96255364       5.96255364      -0.00000000       0.37437189       0.01855954       0.01855954       0.00000000
Au      -5.96255364       0.00000000      -5.96255364       0.37437189      -0.01855954      -0.00000000      -0.01855954
Au       5.96255364      -0.00000000      -5.96255364       0.37437189       0.01855954       0.00000000      -0.01855954
Au      -0.00000000      -5.96255364      -5.96255364       0.37437189       0.00000000      -0.01855954      -0.01855954
Au       0.00000000       5.96255364      -5.96255364       0.37437189       0.00000000       0.01855954      -0.01855954
Au      -5.96255364      -0.00000000       5.96255364       0.37437189      -0.01855954      -0.00000000       0.01855954
Au       5.96255364      -0.00000000       5.96255364       0.37437189       0.01855954       0.00000000       0.01855954
Au       0.00000000      -5.96255364       5.96255364       0.37437189       0.00000000      -0.01855954       0.01855954
Au      -0.00000000       5.96255364       5.96255364       0.37437189       0.00000000       0.01855954       0.01855954
Au      -7.88171029      -3.94613281       0.00000000       0.45966702       0.00478003      -0.01454348      -0.00000000
Au       7.88171029      -3.94613281      -0.00000000       0.45966702      -0.00478003      -0.01454348       0.00000000
Au      -7.88171029       3.94613281       0.00000000       0.45966702       0.00478003       0.01454348      -0.00000000
Au       7.88171029       3.94613281       0.00000000       0.45966702      -0.00478003       0.01454348       0.00000000
Au      -7.88171029       0.00000000      -3.94613281       0.45966702       0.00478003       0.00000000      -0.01454348
Au       7.88171029       0.00000000      -3.94613281       0.45966702      -0.00478003      -0.00000000      -0.01454348
Au       0.00000000      -7.88171029      -3.94613281       0.45966702      -0.00000000       0.00478003      -0.01454348
Au       0.00000000       7.88171029      -3.94613281       0.45966702      -0.00000000      -0.00478003      -0.01454348
Au      -7.88171029       0.00000000       3.94613281       0.45966702       0.00478003       0.00000000       0.01454348
Au       7.88171029      -0.00000000       3.94613281       0.45966702      -0.00478003      -0.00000000       0.01454348
Au      -0.00000000      -7.88171029       3.94613281       0.45966702       0.00000000       0.00478003       0.01454348
Au       0.00000000       7.88171029       3.94613281       0.45966702       0.00000000      -0.00478003       0.01454348
Au      -7.95513104      -1.97809427      -1.97809427       0.36441858       0.02586022      -0.00160160      -0.00160160
Au      -6.04808325      -4.03997656      -2.04052126       0.21741251       0.00101512      -0.00124713       0.01282204
Au      -6.04808325      -2.04052126      -4.03997656       0.21741251       0.00101512       0.01282204      -0.00124713
Au      -4.03997656      -6.04808325      -2.04052126       0.21741251      -0.00124713       0.00101512       0.01282204
Au      -4.04927261      -4.04927261      -4.04927261       0.21459355      -0.00061644      -0.00061644      -0.00061644
Au      -4.03997656      -2.04052126      -6.04808325       0.21741251      -0.00124713       0.01282204       0.00101512
Au      -1.97809427      -7.95513104      -1.97809427       0.36441858      -0.00160160       0.02586022      -0.00160160
Au      -2.04052126      -6.04808325      -4.03997656       0.21741251       0.01282204       0.00101512      -0.00124713
Au      -2.04052126      -4.03997656      -6.04808325       0.21741251       0.01282204      -0.00124713       0.00101512
Au      -1.97809427      -1.97809427      -7.95513104       0.36441858      -0.00160160      -0.00160160       0.02586022
Au      -7.95513104      -1.97809427       1.97809427       0.36441858       0.02586022      -0.00160160       0.00160160
Au      -6.04808325      -4.03997656       2.04052126       0.21741251       0.00101512      -0.00124713      -0.01282204
Au      -6.04808325      -2.04052126       4.03997656       0.21741251       0.00101512       0.01282204       0.00124713
Au      -4.03997656      -6.04808325       2.04052126       0.21741251      -0.00124713       0.00101512      -0.01282204
Au      -4.04927261      -4.04927261       4.04927261       0.21459355      -0.00061644      -0.00061644       0.00061644
Au      -4.03997656      -2.04052126       6.04808325       0.21741251      -0.00124713       0.01282204      -0.00101512
Au      -1.97809427      -7.95513104       1.97809427       0.36441858      -0.00160160       0.02586022       0.00160160
Au      -2.04052126      -6.04808325       4.03997656       0.21741251       0.01282204       0.00101512       0.00124713
Au      -2.04052126      -4.03997656       6.04808325       0.21741251       0.01282204      -0.00124713      -0.00101512
Au      -1.97809427      -1.97809427       7.95513104       0.36441858      -0.00160160      -0.00160160      -0.02586022
Au       7.95513104      -1.97809427      -1.97809427       0.36441858      -0.02586022      -0.00160160      -0.00160160
Au       6.04808325      -4.03997656      -2.04052126       0.21741251      -0.00101512      -0.00124713       0.01282204
Au       6.04808325      -2.04052126      -4.03997656       0.21741251      -0.00101512       0.01282204      -0.00124713
Au       4.03997656      -6.04808325      -2.04052126       0.21741251       0.00124713       0.00101512       0.01282204
Au       4.04927261      -4.04927261      -4.04927261       0.21459355       0.00061644      -0.00061644      -0.00061644
Au       4.03997656      -2.04052126      -6.04808325       0.21741251       0.00124713       0.01282204       0.00101512
Au       1.97809427      -7.95513104      -1.97809427       0.36441858       0.00160160       0.02586022      -0.00160160
Au       2.04052126      -6.04808325      -4.03997656       0.21741251      -0.01282204       0.00101512      -0.00124713
Au       2.04052126      -4.03997656      -6.04808325       0.21741251      -0.01282204      -0.00124713       0.00101512
Au       1.97809427      -1.97809427      -7.95513104       0.36441858       0.00160160      -0.00160160       0.02586022
Au       7.95513104      -1.97809427       1.97809427       0.36441858      -0.02586022      -0.00160160       0.00160160
Au       6.04808325      -4.03997656       2.04052126       0.21741251      -0.00101512      -0.00124713      -0.01282204
Au       6.04808325      -2.04052126       4.03997656       0.21741251      -0.00101512       0.01282204       0.00124713
Au       4.03997656      -6.04808325       2.04052126       0.21741251       0.00124713       0.00101512      -0.01282204
Au       4.04927261      -4.04927261       4.04927261       0.21459355       0.00061644      -0.00061644       0.00061644
Au       4.03997656      -2.04052126       6.04808325       0.21741251       0.00124713       0.01282204      -0.00101512
Au       1.97809427      -7.95513104       1.97809427       0.36441858       0.00160160       0.02586022       0.00160160
Au       2.04052126      -6.04808325       4.03997656       0.21741251      -0.01282204       0.00101512       0.00124713
Au       2.04052126      -4.03997656       6.04808325       0.21741251      -0.01282204      -0.00124713      -0.00101512
Au       1.97809427      -1.97809427       7.95513104       0.36441858       0.00160160      -0.00160160      -0.02586022
Au      -7.95513104       1.97809427      -1.97809427       0.36441858       0.02586022       0.00160160      -0.00160160
Au      -6.04808325       4.03997656      -2.04052126       0.21741251       0.00101512       0.00124713       0.01282204
Au      -6.04808325       2.04052126      -4.03997656       0.21741251       0.00101512      -0.01282204      -0.00124713
Au      -4.03997656       6.04808325      -2.04052126       0.21741251      -0.00124713      -0.00101512       0.01282204
Au      -4.04927261       4.04927261      -4.04927261       0.21459355      -0.00061644       0.00061644      -0.00061644
Au      -4.03997656       2.04052126      -6.04808325       0.21741251      -0.00124713      -0.01282204       0.00101512
Au      -1.97809427       7.95513104      -1.97809427       0.36441858      -0.00160160      -0.02586022      -0.00160160
Au      -2.04052126       6.04808325      -4.03997656       0.21741251       0.01282204      -0.00101512      -0.00124713
Au      -2.04052126       4.03997656      -6.04808325       0.21741251       0.01282204       0.00124713       0.00101512
Au      -1.97809427       1.97809427      -7.95513104       0.36441858      -0.00160160       0.00160160       0.02586022
Au      -7.95513104       1.97809427       1.97809427       0.36441858       0.02586022       0.00160160       0.00160160
Au      -6.04808325       4.03997656       2.04052126       0.21741251       0.00101512       0.00124713      -0.01282204
Au      -6.04808325       2.04052126       4.03997656       0.21741251       0.00101512      -0.01282204       0.00124713
Au      -4.03997656       6.04808325       2.04052126       0.21741251      -0.00124713      -0.00101512      -0.01282204
Au      -4.04927261       4.04927261       4.04927261       0.21459355      -0.00061644       0.00061644       0.00061644
Au      -4.03997656       2.04052126       6.04808325       0.21741251      -0.00124713      -0.01282204      -0.00101512
Au      -1.97809427       7.95513104       1.97809427       0.36441858      -0.00160160      -0.02586022       0.00160160
Au      -2.04052126       6.04808325       4.03997656       0.21741251       0.01282204      -0.00101512       0.00124713
Au      -2.04052126       4.03997656       6.04808325       0.21741251       0.01282204       0.00124713      -0.00101512
Au      -1.97809427       1.97809427       7.95513104       0.36441858      -0.00160160       0.00160160      -0.02586022
Au       7.95513104       1.97809427      -1.97809427       0.36441858      -0.02586022       0.00160160      -0.00160160
Au       6.04808325       4.03997656      -2.04052126       0.21741251      -0.00101512       0.00124713       0.01282204
Au       6.04808325       2.04052126      -4.03997656       0.21741251      -0.00101512      -0.01282204      -0.00124713
Au       4.03997656       6.04808325      -2.04052126       0.21741251       0.00124713      -0.00101512       0.01282204
Au       4.04927261       4.04927261      -4.04927261       0.21459355       0.00061644       0.00061644      -0.00061644
Au       4.03997656       2.04052126      -6.04808325       0.21741251       0.00124713      -0.01282204       0.00101512
Au       1.97809427       7.95513104      -1.97809427       0.36441858       0.00160160      -0.02586022      -0.00160160
Au       2.04052126       6.04808325      -4.03997656       0.21741251      -0.01282204      -0.00101512      -0.00124713
Au       2.04052126       4.03997656      -6.04808325       0.21741251      -0.01282204       0.00124713       0.00101512
Au       1.97809427       1.97809427      -7.95513104       0.36441858       0.00160160       0.00160160       0.02586022
Au       7.95513104       1.97809427       1.97809427       0.36441858      -0.02586022       0.00160160       0.00160160
Au       6.04808325       4.03997656       2.04052126       0.21741251      -0.00101512       0.00124713      -0.01282204
Au       6.04808325       2.04052126       4.03997656       0.21741251      -0.00101512      -0.01282204       0.00124713
Au       4.03997656       6.04808325       2.04052126       0.21741251       0.00124713      -0.00101512      -0.01282204
Au       4.04927261       4.04927261       4.04927261       0.21459355       0.00061644       0.00061644       0.00061644
Au       4.03997656       2.04052126       6.04808325       0.21741251       0.00124713      -0.01282204      -0.00101512
Au       1.97809427       7.95513104       1.97809427       0.36441858       0.00160160      -0.02586022       0.00160160
Au       2.04052126       6.04808325       4.03997656       0.21741251      -0.01282204      -0.00101512       0.00124713
Au       2.04052126       4.03997656       6.04808325       0.21741251      -0.01282204       0.00124713      -0.00101512
Au       1.97809427       1.97809427       7.95513104       0.36441858       0.00160160       0.00160160      -0.02586022
Au      -0.00000000      -8.03464336      -0.00000000       0.27155881      -0.00000000       0.04200272       0.00000000
Au       2.00915897      -6.01833703      -0.00000000       0.05518530       0.00182852       0.01021297       0.00000000
Au       4.04911630      -4.04911630      -0.00000000       0.01524673      -0.00342979       0.00342979       0.00000000
Au       6.01833703      -2.00915897      -0.00000000       0.05518530      -0.01021297      -0.00182852       0.00000000
Au       8.03464336       0.00000000       0.00000000       0.27155881      -0.04200272      -0.00000000      -0.00000000
Au      -2.00915897      -6.01833703      -0.00000000       0.05518530      -0.00182852       0.01021297       0.00000000
Au      -0.00000000      -3.99389248      -0.00000000       0.00327266      -0.00000000       0.00110533      -0.00000000
Au       2.02299429      -2.02299429      -0.00000000      -0.00043230       0.00974772      -0.00974772      -0.00000000
Au       3.99389248       0.00000000      -0.00000000       0.00327266      -0.00110533       0.00000000       0.00000000
Au       6.01833703       2.00915897      -0.00000000       0.05518530      -0.01021297       0.00182852      -0.00000000
Au      -4.04911630      -4.04911630      -0.00000000       0.01524673       0.00342979       0.00342979       0.00000000
Au      -2.02299429      -2.02299429      -0.00000000      -0.00043230      -0.00974772      -0.00974772       0.00000000
Au       0.00000000       0.00000000       0.00000000      -0.00436464      -0.00000000      -0.00000000      -0.00000000
Au       2.02299429       2.02299429       0.00000000      -0.00043230       0.00974772       0.00974772       0.00000000
Au       4.04911630       4.04911630       0.00000000       0.01524673      -0.00342979      -0.00342979       0.00000000
Au      -6.01833703      -2.00915897      -0.00000000       0.05518530       0.01021297      -0.00182852       0.00000000
Au      -3.99389248      -0.00000000       0.00000000       0.00327266       0.00110533      -0.00000000      -0.00000000
Au      -2.02299429       2.02299429      -0.00000000      -0.00043230      -0.00974772       0.00974772       0.00000000
Au      -0.00000000       3.99389248      -0.00000000       0.00327266       0.00000000      -0.00110533       0.00000000
Au       2.00915897       6.01833703      -0.00000000       0.05518530       0.00182852      -0.01021297      -0.00000000
Au      -8.03464336       0.00000000      -0.00000000       0.27155881       0.04200272      -0.00000000       0.00000000
Au      -6.01833703       2.00915897       0.00000000       0.05518530       0.01021297       0.00182852       0.00000000
Au      -4.04911630       4.04911630      -0.00000000       0.01524673       0.00342979      -0.00342979      -0.00000000
Au      -2.00915897       6.01833703       0.00000000       0.05518530      -0.00182852      -0.01021297      -0.00000000
Au       0.00000000       8.03464336       0.00000000       0.27155881      -0.00000000      -0.04200272      -0.00000000
Au       0.00000000       0.00000000      -8.03464336       0.27155881      -0.00000000       0.00000000       0.04200272
Au       0.00000000       0.00000000       8.03464336       0.27155881       0.00000000       0.00000000      -0.04200272
Au      -0.00000000      -2.00915897      -6.01833703       0.05518530       0.00000000      -0.00182852       0.01021297
Au       2.00915897      -0.00000000      -6.01833703       0.05518530       0.00182852       0.00000000       0.01021297
Au      -2.00915897       0.00000000      -6.01833703       0.05518530      -0.00182852      -0.00000000       0.01021297
Au       0.00000000       2.00915897      -6.01833703       0.05518530       0.00000000       0.00182852       0.01021297
Au       0.00000000      -2.00915897       6.01833703       0.05518530      -0.00000000      -0.00182852      -0.01021297
Au       2.00915897       0.00000000       6.01833703       0.05518530       0.00182852       0.00000000      -0.01021297
Au      -2.00915897      -0.00000000       6.01833703       0.05518530      -0.00182852       0.00000000      -0.01021297
Au      -0.00000000       2.00915897       6.01833703       0.05518530       0.00000000       0.00182852      -0.01021297
Au       0.00000000      -4.04911630      -4.04911630       0.01524673      -0.00000000       0.00342979       0.00342979
Au       2.04694042      -2.04694042      -4.04599080       0.00560696       0.00832230      -0.00832230      -0.00222866
Au       4.04911630       0.00000000      -4.04911630       0.01524673      -0.00342979      -0.00000000       0.00342979
Au      -2.04694042      -2.04694042      -4.04599080       0.00560696      -0.00832230      -0.00832230      -0.00222866
Au      -0.00000000      -0.00000000      -3.99389248       0.00327266       0.00000000       0.00000000       0.00110533
Au       2.04694042       2.04694042      -4.04599080       0.00560696       0.00832230       0.00832230      -0.00222866
Au      -4.04911630       0.00000000      -4.04911630       0.01524673       0.00342979      -0.00000000       0.00342979
Au      -2.04694042       2.04694042      -4.04599080       0.00560696      -0.00832230       0.00832230      -0.00222866
Au      -0.00000000       4.04911630      -4.04911630       0.01524673       0.00000000      -0.00342979       0.00342979
Au      -0.00000000      -4.04911630       4.04911630       0.01524673      -0.00000000       0.00342979      -0.00342979
Au       2.04694042      -2.04694042       4.04599080       0.00560696       0.00832230      -0.00832230       0.00222866
Au       4.04911630       0.00000000       4.04911630       0.01524673      -0.00342979      -0.00000000      -0.00342979
Au      -2.04694042      -2.04694042       4.04599080       0.00560696      -0.00832230      -0.00832230       0.00222866
Au       0.00000000       0.00000000       3.99389248       0.00327266       0.00000000       0.00000000      -0.00110533
Au       2.04694042       2.04694042       4.04599080       0.00560696       0.00832230       0.00832230       0.00222866
Au      -4.04911630      -0.00000000       4.04911630       0.01524673       0.00342979      -0.00000000      -0.00342979
Au      -2.04694042       2.04694042       4.04599080       0.00560696      -0.00832230       0.00832230       0.00222866
Au      -0.00000000       4.04911630       4.04911630       0.01524673      -0.00000000      -0.00342979      -0.00342979
Au      -0.00000000      -6.01833703      -2.00915897       0.05518530       0.00000000       0.01021297      -0.00182852
Au       2.04694042      -4.04599080      -2.04694042       0.00560696       0.00832230      -0.00222866      -0.00832230
Au       4.04599080      -2.04694042      -2.04694042       0.00560696       0.00222866      -0.00832230      -0.00832230
Au       6.01833703       0.00000000      -2.00915897       0.05518530      -0.01021297      -0.00000000      -0.00182852
Au      -2.04694042      -4.04599080      -2.04694042       0.00560696      -0.00832230      -0.00222866      -0.00832230
Au      -0.00000000      -2.02299429      -2.02299429      -0.00043230       0.00000000      -0.00974772      -0.00974772
Au       2.02299429       0.00000000      -2.02299429      -0.00043230       0.00974772      -0.00000000      -0.00974772
Au       4.04599080       2.04694042      -2.04694042       0.00560696       0.00222866       0.00832230      -0.00832230
Au      -4.04599080      -2.04694042      -2.04694042       0.00560696      -0.00222866      -0.00832230      -0.00832230
Au      -2.02299429      -0.00000000      -2.02299429      -0.00043230      -0.00974772       0.00000000      -0.00974772
Au      -0.00000000       2.02299429      -2.02299429      -0.00043230      -0.00000000       0.00974772      -0.00974772
Au       2.04694042       4.04599080      -2.04694042       0.00560696       0.00832230       0.00222866      -0.00832230
Au      -6.01833703      -0.00000000      -2.00915897       0.05518530       0.01021297      -0.00000000      -0.00182852
Au      -4.04599080       2.04694042      -2.04694042       0.00560696      -0.00222866       0.00832230      -0.00832230
Au      -2.04694042       4.04599080      -2.04694042       0.00560696      -0.00832230       0.00222866      -0.00832230
Au       0.00000000       6.01833703      -2.00915897       0.05518530      -0.00000000      -0.01021297      -0.00182852
Au      -0.00000000      -6.01833703       2.00915897       0.05518530       0.00000000       0.01021297       0.00182852
Au       2.04694042      -4.04599080       2.04694042       0.00560696       0.00832230      -0.00222866       0.00832230
Au       4.04599080      -2.04694042       2.04694042       0.00560696       0.00222866      -0.00832230       0.00832230
Au       6.01833703       0.00000000       2.00915897       0.05518530      -0.01021297      -0.00000000       0.00182852
Au      -2.04694042      -4.04599080       2.04694042       0.00560696      -0.00832230      -0.00222866       0.00832230
Au      -0.00000000      -2.02299429       2.02299429      -0.00043230       0.00000000      -0.00974772       0.00974772
Au       2.02299429       0.00000000       2.02299429      -0.00043230       0.00974772      -0.00000000       0.00974772
Au       4.04599080       2.04694042       2.04694042       0.00560696       0.00222866       0.00832230       0.00832230
Au      -4.04599080      -2.04694042       2.04694042       0.00560696      -0.00222866      -0.00832230       0.00832230
Au      -2.02299429       0.00000000       2.02299429      -0.00043230      -0.00974772      -0.00000000       0.00974772
Au       0.00000000       2.02299429       2.02299429      -0.00043230      -0.00000000       0.00974772       0.00974772
Au       2.04694042       4.04599080       2.04694042       0.00560696       0.00832230       0.00222866       0.00832230
Au      -6.01833703      -0.00000000       2.00915897       0.05518530       0.01021297       0.00000000       0.00182852
Au      -4.04599080       2.04694042       2.04694042       0.00560696      -0.00222866       0.00832230       0.00832230
Au      -2.04694042       4.04599080       2.04694042       0.00560696      -0.00832230       0.00222866       0.00832230
Au       0.00000000       6.01833703       2.00915897       0.05518530      -0.00000000      -0.01021297       0.00182852
