60
Lattice="32.44668 0.0 0.0 -16.223339999999993 28.099649148464472 0.0 0.0 0.0 34.25344" Properties=species:S:1:pos:R:3:spacegroup_kinds:I:1:energies:R:1:forces:R:3 energy=18.880625455097128 free_energy=18.880625455097128 stress="4.470506872584663e-06 1.9988203191445965e-09 1.004598480150392e-09 1.9988203191445965e-09 4.468198833693297e-06 5.800052023244977e-10 1.004598480150392e-09 5.800052023244977e-10 -2.5185510136445063e-05" pbc="T T T"
Au      -4.16845886      -3.94102565      -1.16495829        0       0.54316377       0.00529848      -0.01533458      -0.01111693
Au      -5.49727128      -1.63945502      -1.16495829        0       0.54316377      -0.01063090       0.01225590      -0.01111693
Au      -2.78053446      -3.18761681      -3.35320709        0       0.44990373       0.02680748       0.00630693      -0.00964933
Au      -1.42231667      -4.14955270      -1.17263394        0       0.22250578       0.00274966       0.00342384       0.01991196
Au      -4.15083788      -0.81418166      -3.35320709        0       0.44990373       0.01886570       0.02006249      -0.00964933
Au      -2.78812066      -1.60970660      -1.09975630        0       0.09528344      -0.00026187      -0.00015119      -0.02742641
Au      -0.00000902      -3.23583755      -3.41353570        0       0.37450511       0.00000110      -0.01924833      -0.00167154
Au       1.42230303      -4.14955200      -1.17263336        0       0.22250570      -0.00274952       0.00342414       0.01990994
Au      -1.40987511      -0.81397616      -3.54541497        0       0.22263475       0.00508344       0.00293493      -0.00952848
Au      -0.00000711      -1.64050512      -1.21692293        0       0.02320049       0.00000008      -0.02962863      -0.01439883
Au      -1.32882451      -5.58049070       1.16496140        0       0.54316403      -0.01592388      -0.00307654       0.01111744
Au      -2.88248187      -3.30652564       1.17263670        0       0.22250593       0.00159227       0.00409288      -0.01991066
Au      -1.37030884      -4.00180619       3.35320915        0       0.44990349      -0.00794185       0.02636882       0.00964915
Au      -4.30478966      -0.84301629       1.17263670        0       0.22250593       0.00434067      -0.00066750      -0.01991066
Au      -2.80233134      -1.61791114       3.41353876        0       0.37450503      -0.01667027      -0.00962459       0.00167095
Au       1.32880076      -5.58049140       1.16496144        0       0.54316402       0.01592931      -0.00307625       0.01111725
Au      -0.00000802      -3.21942347       1.09975705        0       0.09528385       0.00000007      -0.00030711       0.02742941
Au       1.37029820      -4.00180557       3.35320788        0       0.44990372       0.00794082       0.02636831       0.00964928
Au      -1.42073562      -0.82024648       1.21692358        0       0.02320061      -0.02566017      -0.01481491       0.01439861
Au      -0.00000484      -1.62795959       3.54541599        0       0.22263482      -0.00000017       0.00586744       0.00952824
Au      -4.30478991       0.84303740      -1.17263394        0       0.22250578       0.00433996       0.00066936       0.01991196
Au      -2.80233555       1.61793438      -3.41353570        0       0.37450511      -0.01666899       0.00962512      -0.00167154
Au      -1.42073618       0.82026982      -1.21692293        0       0.02320049      -0.02565911       0.01481438      -0.01439883
Au      -2.88247945       3.30654997      -1.17263336        0       0.22250570       0.00159063      -0.00409322       0.01990994
Au      -5.49727248       1.63947299       1.16496140        0       0.54316403      -0.01062630      -0.01225221       0.01111744
Au      -4.15083376       0.81420425       3.35320915        0       0.44990349       0.01886514      -0.02006225       0.00964915
Au      -2.78812004       1.60972820       1.09975705        0       0.09528385      -0.00026593       0.00015362       0.02742941
Au      -1.40987030       0.81399902       3.54541599        0       0.22263482       0.00508126      -0.00293386       0.00952824
Au      -4.16846046       3.94104433       1.16496144        0       0.54316402       0.00530054       0.01533331       0.01111725
Au      -2.78052970       3.18763926       3.35320788        0       0.44990372       0.02680604      -0.00630720       0.00964928
Au       2.78051619      -3.18761584      -3.35320788        0       0.44990372      -0.02680604       0.00630720      -0.00964928
Au       4.16844694      -3.94102091      -1.16496144        0       0.54316402      -0.00530054      -0.01533331      -0.01111725
Au       1.40985679      -0.81397560      -3.54541599        0       0.22263482      -0.00508126       0.00293386      -0.00952824
Au       2.78810652      -1.60970479      -1.09975705        0       0.09528385       0.00026593      -0.00015362      -0.02742941
Au       4.15082024      -0.81418083      -3.35320915        0       0.44990349      -0.01886514       0.02006225      -0.00964915
Au       5.49725896      -1.63944957      -1.16496140        0       0.54316403       0.01062630       0.01225221      -0.01111744
Au       2.88246593      -3.30652655       1.17263336        0       0.22250570      -0.00159063       0.00409322      -0.01990994
Au       1.42072266      -0.82024640       1.21692293        0       0.02320049       0.02565911      -0.01481438       0.01439883
Au       2.80232203      -1.61791097       3.41353570        0       0.37450511       0.01666899      -0.00962512       0.00167154
Au       4.30477639      -0.84301399       1.17263394        0       0.22250578      -0.00433996      -0.00066936      -0.01991196
Au      -0.00000868       1.62798301      -3.54541599        0       0.22263482       0.00000017      -0.00586744      -0.00952824
Au       1.42072211       0.82026990      -1.21692358        0       0.02320061       0.02566017       0.01481491      -0.01439861
Au      -1.37031172       4.00182899      -3.35320788        0       0.44990372      -0.00794082      -0.02636831      -0.00964928
Au      -0.00000550       3.21944688      -1.09975705        0       0.09528385      -0.00000007       0.00030711      -0.02742941
Au      -1.32881428       5.58051482      -1.16496144        0       0.54316402      -0.01592931       0.00307625      -0.01111725
Au       2.80231782       1.61793456      -3.41353876        0       0.37450503       0.01667027       0.00962459      -0.00167095
Au       4.30477614       0.84303971      -1.17263670        0       0.22250593      -0.00434067       0.00066750       0.01991066
Au       1.37029532       4.00182961      -3.35320915        0       0.44990349       0.00794185      -0.02636882      -0.00964915
Au       2.88246835       3.30654906      -1.17263670        0       0.22250593      -0.00159227      -0.00409288       0.01991066
Au       1.32881099       5.58051412      -1.16496140        0       0.54316403       0.01592388       0.00307654      -0.01111744
Au      -0.00000641       1.64052854       1.21692293        0       0.02320049      -0.00000008       0.02962863       0.01439883
Au       1.40986159       0.81399958       3.54541497        0       0.22263475      -0.00508344      -0.00293493       0.00952848
Au      -1.42231655       4.14957541       1.17263336        0       0.22250570       0.00274952      -0.00342414      -0.01990994
Au      -0.00000450       3.23586096       3.41353570        0       0.37450511      -0.00000110       0.01924833       0.00167154
Au       2.78810714       1.60973002       1.09975630        0       0.09528344       0.00026187       0.00015119       0.02742641
Au       4.15082437       0.81420508       3.35320709        0       0.44990373      -0.01886570      -0.02006249       0.00964933
Au       1.42230315       4.14957612       1.17263394        0       0.22250578      -0.00274966      -0.00342384      -0.01991196
Au       2.78052094       3.18764023       3.35320709        0       0.44990373      -0.02680748      -0.00630693       0.00964933
Au       5.49725776       1.63947844       1.16495829        0       0.54316377       0.01063090      -0.01225590       0.01111693
Au       4.16844534       3.94104907       1.16495829        0       0.54316377      -0.00529848       0.01533458       0.01111693
