534
Lattice="37.854459999999996 0.0 0.0 -18.92722999999999 32.78292400654188 0.0 0.0 0.0 42.8168" Properties=species:S:1:pos:R:3:spacegroup_kinds:I:1:energies:R:1:forces:R:3 energy=82.99223477555964 free_energy=82.99223477555964 stress="0.00033106751957334804 -3.401962733865992e-09 2.336697858043918e-10 -3.401962733865992e-09 0.00033107144782156797 1.3490931245396075e-10 2.336697858043918e-10 1.3490931245396075e-10 -0.00023304401928049098" pbc="T T T"
Au      -5.66736002     -11.40180483      -1.12895724        0       0.45843995       0.02037217       0.03456206       0.00770248
Au      -8.49686764      -8.10279540      -3.33384037        0       0.55116969      -0.01599077       0.00926541      -0.01947305
Au      -7.18355182      -9.10115288      -1.16184500        0       0.21847663       0.00047071       0.04262897       0.01969606
Au      -9.91111998      -5.72217218      -3.35122561        0       0.45527649      -0.00375305      -0.00216682       0.00104609
Au      -8.64673301      -6.63531215      -1.08518235        0       0.16100662       0.01555861       0.02101351       0.00794693
Au     -11.26567400      -3.30708211      -3.33384037        0       0.55116969       0.00002869      -0.01848112      -0.01947305
Au     -10.06972890      -4.17061096      -1.08518235        0       0.16100662       0.02597753       0.00296740       0.00794693
Au     -11.47361903      -1.67053851      -1.16184500        0       0.21847663       0.03715312      -0.02090684       0.01969606
Au      -4.24644421     -10.68368695      -3.42022810        0       0.36937653       0.01408547       0.02536533      -0.01995702
Au      -2.87798679     -11.50498357      -1.19727304        0       0.29541314       0.00746602       0.03156781      -0.02532170
Au      -5.53938441      -8.12951286      -7.99622251        0       0.55617785      -0.01010339       0.00960472      -0.00091781
Au      -4.24651018      -9.07745129      -5.79262912        0       0.29456073       0.00683375       0.01957811      -0.00342390
Au      -5.75688420      -8.33566868      -3.49967399        0       0.14375405       0.00502538       0.00983801      -0.00049582
Au      -4.29966343      -9.07035292      -1.15876018        0       0.03741066       0.00154626       0.00346234      -0.00516722
Au      -7.02381752      -5.72687785      -8.01224444        0       0.47125152      -0.01650974      -0.00443074      -0.01516222
Au      -5.73983307      -6.65559957      -5.77691259        0       0.15377787       0.00522638       0.03173638      -0.00473048
Au      -7.16456754      -5.79157994      -3.50223046        0       0.10460194       0.00158258       0.00374813       0.02768608
Au      -5.77916993      -6.63275590      -1.18626310        0      -0.00365016      -0.00017954      -0.01344779      -0.01321957
Au      -8.47154398      -3.21934206      -8.01224444        0       0.47125152      -0.01209201      -0.01208248      -0.01516222
Au      -7.17572275      -4.14288985      -5.81475012        0       0.14760487       0.01495809       0.00863606      -0.01466450
Au      -8.59795264      -3.30888411      -3.50223046        0       0.10460194       0.00403726      -0.00050351       0.02768608
Au      -7.20394764      -4.15918550      -1.17203803        0      -0.00423977       0.00110514       0.00063805       0.00924966
Au      -9.81007039      -0.73246777      -7.99622251        0       0.55617785       0.00326624      -0.01355215      -0.00091781
Au      -8.63384835      -1.64301805      -5.77691259        0       0.15377787       0.03009770      -0.01134201      -0.00473048
Au     -10.09735646      -0.81775021      -3.49967399        0       0.14375405       0.01103266      -0.00056690      -0.00049582
Au      -8.63373360      -1.68850661      -1.18626310        0      -0.00365016      -0.01173590       0.00656841      -0.01321957
Au      -1.44092664     -10.71883272      -3.47290075        0       0.28496272       0.00641430       0.02749996      -0.02828541
Au      -0.00000583     -11.50824054      -1.25372742        0       0.29712777      -0.00000369       0.02840934      -0.00715335
Au      -2.82309822      -8.20685758      -8.10958977        0       0.29127742       0.01319518       0.01170426       0.00306350
Au      -1.42960385      -9.09249439      -5.83057257        0       0.20990794       0.00650318      -0.00409903       0.00052823
Au      -2.86581819      -8.29059527      -3.50642921        0       0.02460021      -0.00867133       0.01152565      -0.00771046
Au      -1.43250317      -9.10274638      -1.17550625        0       0.01186079      -0.00530973      -0.01616023      -0.00293320
Au      -2.76345184      -6.46942734     -10.33813343        0       0.45460342       0.00145521       0.00523565       0.01061275
Au      -4.29172939      -5.76490371      -8.17549426        0       0.11826704       0.02110051       0.01776507       0.02467313
Au      -2.88115770      -6.63552492      -5.81105811        0       0.00460543      -0.01684713      -0.00066557      -0.01932636
Au      -4.31073960      -5.81986055      -3.48262061        0       0.00140565      -0.01463813      -0.00439414      -0.01089267
Au      -2.87413302      -6.61532743      -1.15514281        0       0.00237057       0.00127435      -0.00700995       0.00627129
Au      -4.18463624      -4.05232319     -10.40545669        0       0.36926466       0.00852609       0.00433474       0.00430196
Au      -5.73857864      -3.31315431      -8.19546704        0       0.09791692       0.02088296       0.01205678       0.02236734
Au      -4.32471809      -4.15213205      -5.81753306        0      -0.00645168      -0.02357632      -0.00548637      -0.01882736
Au      -5.74468328      -3.31667883      -3.49211015        0       0.00287491       0.01288263       0.00743779      -0.01136353
Au      -4.32233953      -4.14939290      -1.16548279        0       0.00180877      -0.00392490      -0.00176218      -0.00261186
Au      -5.60174646      -1.59781627     -10.40545669        0       0.36926466       0.00801704       0.00521644       0.00430196
Au      -7.13843127      -0.83427141      -8.17549426        0       0.11826704       0.02593526       0.00939104       0.02467313
Au      -5.75822440      -1.66922629      -5.81753306        0      -0.00645168      -0.01653949      -0.01767451      -0.01882736
Au      -7.19553041      -0.82325631      -3.48262061        0       0.00140565      -0.01112450      -0.01047993      -0.01089267
Au      -5.75466295      -1.66853597      -1.16548279        0       0.00180877      -0.00348855      -0.00251797      -0.00261186
Au       1.44091028     -10.71883213      -3.47290064        0       0.28496275      -0.00641138       0.02749923      -0.02828517
Au       2.87797456     -11.50498206      -1.19727057        0       0.29541295      -0.00747222       0.03156495      -0.02532654
Au      -0.00000808      -8.20727396      -8.09128448        0       0.27845760       0.00000100       0.00496665       0.00197970
Au       1.42959014      -9.09249448      -5.83057257        0       0.20990793      -0.00650691      -0.00409879       0.00052846
Au      -0.00000839      -8.31620242      -3.51359828        0       0.01808978       0.00000133       0.01519218       0.00569088
Au       1.43249012      -9.10274550      -1.17550654        0       0.01186078       0.00530529      -0.01616085      -0.00293234
Au      -0.00000741      -6.52930359     -10.33604163        0       0.36332650       0.00000052       0.00944186       0.00180435
Au      -1.42316321      -5.76328616      -8.08984371        0       0.04333892       0.00023584       0.00343574      -0.01276441
Au      -0.00000663      -6.64294533      -5.78191461        0       0.00805666      -0.00000156      -0.02012507      -0.01754265
Au      -1.43311373      -5.80470815      -3.47071825        0       0.00113795      -0.01421399       0.00392165      -0.01229234
Au      -0.00000755      -6.62649858      -1.15652834        0       0.00188302       0.00000014      -0.01042998      -0.00503054
Au      -1.40947712      -4.09430441     -10.43711439        0       0.21767469       0.00271980       0.00195049      -0.00264275
Au      -2.85921762      -3.29193215      -8.12203020        0       0.00991786       0.00119454       0.00120949      -0.03032484
Au      -1.43581876      -4.13262316      -5.77574619        0       0.00113898      -0.00822645       0.00101973      -0.01258802
Au      -2.88130251      -3.32686434      -3.47538488        0       0.00221427      -0.00449906       0.00636201      -0.01066686
Au      -1.43760315      -4.14443665      -1.15255621        0       0.00218854      -0.00259823       0.00161244      -0.00908019
Au      -2.83074435      -1.63431540     -10.44286604        0       0.21483963       0.00573448       0.00331080      -0.00184049
Au      -4.28051920      -0.83016561      -8.12203020        0       0.00991786       0.00164472       0.00042975      -0.03032484
Au      -2.87850215      -1.66188838      -5.78375489        0       0.00161180       0.00697662       0.00402795      -0.01404199
Au      -4.32181381      -0.83182559      -3.47538488        0       0.00221427       0.00326013      -0.00707731      -0.01066686
Au      -2.87795159      -1.66157051      -1.16509634        0       0.00179767       0.00217901       0.00125805       0.00668174
Au       4.24642742     -10.68368619      -3.42022721        0       0.36937631      -0.01408317       0.02536444      -0.01995937
Au       5.66734731     -11.40180420      -1.12895783        0       0.45843996      -0.02037600       0.03456135       0.00770160
Au       2.82308219      -8.20685717      -8.10958938        0       0.29127744      -0.01319429       0.01170344       0.00306300
Au       4.24649580      -9.07745216      -5.79262794        0       0.29456084      -0.00683575       0.01957983      -0.00342561
Au       2.86580148      -8.29059429      -3.50642934        0       0.02460024       0.00867345       0.01152540      -0.00771032
Au       4.29965062      -9.07035130      -1.15876049        0       0.03741078      -0.00155248       0.00346126      -0.00516671
Au       2.76343691      -6.46942729     -10.33813283        0       0.45460345      -0.00145411       0.00523607       0.01061180
Au       1.42314790      -5.76328581      -8.08984353        0       0.04333893      -0.00023561       0.00343535      -0.01276449
Au       2.88114432      -6.63552469      -5.81105804        0       0.00460538       0.01684434      -0.00066571      -0.01932632
Au       1.43309657      -5.80470785      -3.47071807        0       0.00113800       0.01421771       0.00392196      -0.01229269
Au       2.87411841      -6.61532650      -1.15514320        0       0.00237057      -0.00127526      -0.00700958       0.00627235
Au       1.40946380      -4.09430401     -10.43711400        0       0.21767470      -0.00271998       0.00195050      -0.00264309
Au      -0.00000770      -3.28363230      -8.12484342        0       0.00378841       0.00000143      -0.01059965      -0.03218296
Au       1.43580647      -4.13262308      -5.77574608        0       0.00113900       0.00822311       0.00102015      -0.01258749
Au      -0.00000783      -3.31344734      -3.46667771        0       0.00270709       0.00000072      -0.00290200       0.00436044
Au       1.43758841      -4.14443643      -1.15255590        0       0.00218854       0.00259878       0.00161308      -0.00908045
Au      -0.00000599      -1.63083691     -10.43604403        0       0.21326279      -0.00000027      -0.00327484       0.00154421
Au      -1.42653835      -0.82359669      -8.13200130        0       0.00715267      -0.00150355      -0.00086808      -0.02150295
Au      -0.00000544      -1.65238783      -5.78817293        0       0.00132121      -0.00000238      -0.00524466      -0.01200084
Au      -1.44064479      -0.83174105      -3.47425719        0       0.00121309       0.00503951       0.00290956       0.00942449
Au      -0.00000700      -1.65814218      -1.15476702        0       0.00224784       0.00000036       0.00004141      -0.00737143
Au      -7.04059438     -10.60896952       1.12895862        0       0.45844023       0.01974585       0.03492708      -0.00770310
Au      -8.52463592      -8.24489146       1.19727363        0       0.29541323       0.02360379       0.02225411       0.02532163
Au      -7.12914296      -9.01935858       3.42022931        0       0.36937617       0.01492276       0.02487910       0.01995483
Au      -9.96644732      -5.75411543       1.25372792        0       0.29712792       0.02460370       0.01420496       0.00715389
Au      -8.56233918      -6.60728250       3.47290190        0       0.28496254       0.02060784       0.01930332       0.02828367
Au     -11.40261694      -3.26008212       1.19727363        0       0.29541323       0.03107452       0.00931443       0.02532163
Au     -10.00325760      -4.11153858       3.47290190        0       0.28496254       0.02702108       0.00819525       0.02828367
Au     -12.70794782      -0.79282541       1.12895862        0       0.45844023       0.04012066      -0.00036313      -0.00770310
Au     -11.37557865      -1.66431621       3.42022931        0       0.36937617       0.02900732       0.00048394       0.01995483
Au      -4.29007603     -10.77170432       1.16184680        0       0.21847701       0.03668661       0.02172549      -0.01969805
Au      -2.76881273     -11.40988664       3.33384155        0       0.55116965       0.01602056      -0.00921471       0.01947148
Au      -5.70534544      -8.25878372       1.15876014        0       0.03741076       0.00222412       0.00307416       0.00516738
Au      -4.34047908      -9.15342787       3.49967281        0       0.14375384       0.00600567       0.00926751       0.00049962
Au      -5.73807197      -8.21630012       5.79262880        0       0.29456083       0.01354180       0.01570850       0.00342409
Au      -4.27069381      -8.86199121       7.99622137        0       0.55617771       0.01336959      -0.00394731       0.00091845
Au      -7.16698049      -5.79194762       1.17550680        0       0.01186085      -0.01133858      -0.01267358       0.00293109
Au      -5.74697722      -6.62715560       3.50642916        0       0.02459999       0.01431365      -0.00174831       0.00771117
Au      -7.15955194      -5.78431007       5.83057303        0       0.20990801      -0.00680020       0.00358599      -0.00053089
Au      -5.69581935      -6.54829093       8.10958985        0       0.29127730       0.00353671       0.01727805      -0.00306349
Au      -8.59947754      -3.31078995       1.17550680        0       0.01186085      -0.01664493      -0.00348271       0.00293109
Au      -7.20205951      -4.15809539       3.51359814        0       0.01808956       0.01315361       0.00759424      -0.00568985
Au      -8.58914896      -3.30817541       5.83057303        0       0.20990801      -0.00029454      -0.00768214      -0.00053089
Au      -7.10772469      -4.10363115       8.09128397        0       0.27845733       0.00429821       0.00248158      -0.00197848
Au     -10.00500274      -0.81155881       1.15876014        0       0.03741076       0.00377436       0.00038906       0.00516738
Au      -8.61278724      -1.66342705       3.50642916        0       0.02459999       0.00564275       0.01327014       0.00771117
Au      -9.98457413      -0.86114262       5.79262880        0       0.29456083       0.02037485       0.00387329       0.00342409
Au      -8.51890949      -1.65855537       8.10958985        0       0.29127730       0.01673158      -0.00557615      -0.00306349
Au      -1.42300437     -10.80593339       1.08518152        0       0.16100661       0.01042159       0.02398026      -0.00794041
Au      -0.00000573     -11.44435281       3.35122487        0       0.45527635      -0.00000248      -0.00433455      -0.00104496
Au      -2.85457192      -8.32127407       1.18626332        0      -0.00365014      -0.01155515      -0.00687611       0.01321776
Au      -1.43339159      -9.10047296       3.50222938        0       0.10460208       0.00245331       0.00324262      -0.02768436
Au      -2.89402403      -8.29862994       5.77691117        0       0.15377804       0.02487314       0.02039590       0.00473180
Au      -1.44773377      -8.94623073       8.01224263        0       0.47125160       0.00441742      -0.01651274       0.01516253
Au      -4.29199731      -5.79672408       1.15514302        0       0.00237048      -0.00670636      -0.00240061      -0.00627202
Au      -2.88479697      -6.64312556       3.48262043        0       0.00140561       0.00350993      -0.01487708       0.01089247
Au      -4.30597658      -5.81290783       5.81105849        0       0.00460547       0.00784842      -0.01491936       0.01932433
Au      -2.84670877      -6.59918598       8.17549374        0       0.11826712       0.00483193       0.02715401      -0.02467303
Au      -4.22098626      -5.62792300      10.33813220        0       0.45460332       0.00380909       0.00387979      -0.01061159
Au      -5.73873548      -3.31324486       1.15652774        0       0.00188291      -0.00903038      -0.00521369       0.00503170
Au      -4.31048928      -4.14345330       3.47071773        0       0.00113800       0.01050337      -0.01035201       0.01229292
Au      -5.75297830      -3.32146796       5.78191502        0       0.00805671      -0.01742664      -0.01006128       0.01754004
Au      -4.27959049      -4.11412591       8.08984368        0       0.04333865       0.00285320       0.00192091       0.01276351
Au      -5.65456313      -3.26464793      10.33604060        0       0.36332646       0.00817954       0.00472246      -0.00180348
Au      -7.16612249      -0.81859325       1.15514302        0       0.00237048      -0.00543217      -0.00460757      -0.00627202
Au      -5.74359398      -1.66124315       3.47071773        0       0.00113800      -0.00371341       0.01427219       0.01229292
Au      -7.18712766      -0.82260778       5.81105849        0       0.00460547      -0.00899634       0.01425661       0.01932433
Au      -5.70274632      -1.64914772       8.08984368        0       0.04333865       0.00309016       0.00151049       0.01276351
Au      -6.98443094      -0.84149641      10.33813220        0       0.45460332       0.00526454       0.00135888      -0.01061159
Au       1.42298807     -10.80593262       1.08518190        0       0.16100657      -0.01041640       0.02398032      -0.00793995
Au       2.76880106     -11.40988627       3.33384094        0       0.55116967      -0.01602469      -0.00921345       0.01947102
Au      -0.00000781      -8.31838092       1.17203824        0      -0.00423970       0.00000074       0.00127761      -0.00925195
Au       1.43337913      -9.10047257       3.50222923        0       0.10460199      -0.00245631       0.00324181      -0.02768374
Au      -0.00000752      -8.28579147       5.81474870        0       0.14760497       0.00000124       0.01727209       0.01466698
Au       1.44772056      -8.94623017       8.01224298        0       0.47125161      -0.00441888      -0.01651287       0.01516239
Au      -1.43233130      -5.81793973       1.16548241        0       0.00180874       0.00043668      -0.00427903       0.00261158
Au      -0.00000635      -6.63336649       3.49211005        0       0.00287492      -0.00000138       0.01487490       0.01136296
Au      -1.43351464      -5.82137118       5.81753324        0      -0.00645167       0.00703845      -0.02315784       0.01882488
Au      -0.00000662      -6.62631970       8.19546614        0       0.09791693      -0.00000155       0.02411313      -0.02236587
Au      -1.41711912      -5.65015209      10.40545552        0       0.36926475      -0.00050744       0.00955287      -0.00430153
Au      -2.87040767      -3.31720730       1.15255532        0       0.00218848       0.00269586      -0.00144374       0.00908082
Au      -1.44051820      -4.15869947       3.47538378        0       0.00221432       0.00775823      -0.00071769       0.01066845
Au      -2.86106935      -3.30975722       5.77574552        0       0.00113900       0.00499825      -0.00661113       0.01258770
Au      -1.42130783      -4.12210859       8.12202972        0       0.00991787       0.00044732       0.00163855       0.03032484
Au      -2.84105609      -3.26778501      10.43711308        0       0.21767457       0.00033097       0.00333163       0.00264379
Au      -4.30800315      -0.82721890       1.15255532        0       0.00218848       0.00009761       0.00305655       0.00908082
Au      -2.86954645      -1.65671780       3.46667659        0       0.00270711      -0.00251418      -0.00145156      -0.00435841
Au      -4.29688203      -0.82285672       5.77574552        0       0.00113900      -0.00322628       0.00763417       0.01258770
Au      -2.84372519      -1.64180989       8.12484266        0       0.00378841      -0.00918299      -0.00530180       0.03218364
Au      -4.25052640      -0.82651083      10.43711308        0       0.21767457       0.00305076      -0.00137918       0.00264379
Au       4.29006071     -10.77170191       1.16184609        0       0.21847685      -0.03668458       0.02172234      -0.01969628
Au       2.85455611      -8.32127296       1.18626264        0      -0.00365011       0.01155764      -0.00687622       0.01321908
Au       4.34046568      -9.15342640       3.49967370        0       0.14375379      -0.00600720       0.00926598       0.00049700
Au       2.89400848      -8.29862833       5.77691165        0       0.15377797      -0.02487048       0.02039433       0.00473210
Au       4.27068075      -8.86198984       7.99622128        0       0.55617771      -0.01337129      -0.00394792       0.00091820
Au       1.43231620      -5.81793940       1.16548235        0       0.00180875      -0.00043659      -0.00427874       0.00261168
Au       2.88478442      -6.64312509       3.48262018        0       0.00140561      -0.00351416      -0.01487607       0.01089331
Au       1.43349869      -5.82137047       5.81753338        0      -0.00645168      -0.00703571      -0.02315825       0.01882517
Au       2.84669542      -6.59918495       8.17549381        0       0.11826708      -0.00483416       0.02715405      -0.02467231
Au       1.41710277      -5.65015121      10.40545548        0       0.36926472       0.00050922       0.00955222      -0.00430085
Au      -0.00000709      -3.32315208       1.16509558        0       0.00179764      -0.00000069       0.00251612      -0.00668150
Au       1.44050537      -4.15869937       3.47538412        0       0.00221430      -0.00776088      -0.00071662       0.01066785
Au      -0.00000809      -3.32379040       5.78375434        0       0.00161182       0.00000160       0.00805997       0.01404166
Au       1.42129518      -4.12210784       8.12202995        0       0.00991790      -0.00045101       0.00163773       0.03032477
Au      -0.00000844      -3.26864363      10.44286527        0       0.21483965       0.00000107       0.00662268       0.00184139
Au      -1.43601042      -0.82906539       1.15476656        0       0.00224780       0.00003495       0.00002018       0.00737158
Au      -0.00000650      -1.66349287       3.47425673        0       0.00121309      -0.00000061       0.00581867      -0.00942455
Au      -1.43102915      -0.82618945       5.78817229        0       0.00132122      -0.00453854      -0.00262033       0.01200140
Au      -0.00000625      -1.64720378       8.13200105        0       0.00715267      -0.00000209      -0.00173916       0.02150265
Au      -1.41236524      -0.81541384      10.43604347        0       0.21326279      -0.00283528      -0.00163695      -0.00154377
Au     -12.70794616       0.79284808      -1.12895724        0       0.45843995       0.04011771       0.00036178       0.00770248
Au      -9.98457203       0.86116337      -5.79262912        0       0.29456073       0.02037201      -0.00387085      -0.00342390
Au     -11.37557994       1.66433833      -3.42022810        0       0.36937653       0.02900976      -0.00048429      -0.01995702
Au     -10.00500129       0.81158212      -1.15876018        0       0.03741066       0.00377160      -0.00039207      -0.00516722
Au     -11.40261496       3.26010553      -1.19727304        0       0.29541314       0.03107153      -0.00931814      -0.02532170
Au      -6.98442786       0.84151759     -10.33813343        0       0.45460342       0.00526182      -0.00135758       0.01061275
Au      -8.51890977       1.65857743      -8.10958977        0       0.29127742       0.01673378       0.00557524       0.00306350
Au      -7.18712552       0.82263011      -5.81105811        0       0.00460543      -0.00899997      -0.01425726      -0.01932636
Au      -8.61278873       1.66344969      -3.50642921        0       0.02460021       0.00564584      -0.01327242      -0.00771046
Au      -7.16612164       0.81861492      -1.15514281        0       0.00237057      -0.00543362       0.00460860       0.00627129
Au      -8.58914657       3.30819736      -5.83057257        0       0.20990794      -0.00029827       0.00768143       0.00052823
Au     -10.00325827       4.11156070      -3.47290075        0       0.28496272       0.02702281      -0.00819504      -0.02828541
Au      -8.59947472       3.31081247      -1.17550625        0       0.01186079      -0.01665004       0.00348175      -0.00293320
Au      -9.96644509       5.75413863      -1.25372742        0       0.29712777       0.02460136      -0.01420787      -0.00715335
Au      -4.25052371       0.82653263     -10.43711439        0       0.21767469       0.00304907       0.00138018      -0.00264275
Au      -5.70274735       1.64917101      -8.08984371        0       0.04333892       0.00309336      -0.00151362      -0.01276441
Au      -4.29687954       0.82287948      -5.77574619        0       0.00113898      -0.00323012      -0.00763418      -0.01258802
Au      -5.74359511       1.66126460      -3.47071825        0       0.00113795      -0.00371074      -0.01427050      -0.01229234
Au      -4.30800252       0.82724089      -1.15255621        0       0.00218854       0.00009730      -0.00305635      -0.00908019
Au      -5.65456000       3.26466879     -10.33604163        0       0.36332650       0.00817715      -0.00472048       0.00180435
Au      -7.10772530       4.10365340      -8.09128448        0       0.27845760       0.00430174      -0.00248246       0.00197970
Au      -5.75297625       3.32149034      -5.78191461        0       0.00805666      -0.01742960       0.01006119      -0.01754265
Au      -7.20206027       4.15811737      -3.51359828        0       0.01808978       0.01315748      -0.00759493       0.00569088
Au      -5.73873340       3.31326617      -1.15652834        0       0.00188302      -0.00903256       0.00521511      -0.00503054
Au      -7.15954965       5.78433203      -5.83057257        0       0.20990793      -0.00680311      -0.00358575       0.00052846
Au      -8.56233930       6.60730438      -3.47290064        0       0.28496275       0.02060934      -0.01930203      -0.02828517
Au      -7.16697731       5.79196900      -1.17550654        0       0.01186078      -0.01134306       0.01267494      -0.00293234
Au      -8.52463298       8.24491353      -1.19727057        0       0.29541295       0.02359994      -0.02225361      -0.02532654
Au      -1.41236271       0.81543668     -10.43604403        0       0.21326279      -0.00283623       0.00163719       0.00154421
Au      -2.84372636       1.64183289      -8.12484342        0       0.00378841      -0.00917885       0.00530107      -0.03218296
Au      -1.43102608       0.82621262      -5.78817293        0       0.00132121      -0.00454320       0.00262027      -0.01200084
Au      -2.86954700       1.65674031      -3.46667771        0       0.00270709      -0.00251284       0.00145162       0.00436044
Au      -1.43601027       0.82908844      -1.15476702        0       0.00224784       0.00003604      -0.00002039      -0.00737143
Au      -2.84105290       3.26780688     -10.43711400        0       0.21767470       0.00032919      -0.00333083      -0.00264309
Au      -4.27959149       4.11414855      -8.08984353        0       0.04333893       0.00285730      -0.00192172      -0.01276449
Au      -2.86106686       3.30977984      -5.77574608        0       0.00113900       0.00499503       0.00661135      -0.01258749
Au      -4.31048969       4.14347538      -3.47071807        0       0.00113800       0.01050537       0.01035192      -0.01229269
Au      -2.87040655       3.31722972      -1.15255590        0       0.00218854       0.00269636       0.00144407      -0.00908045
Au      -4.22098344       5.62794362     -10.33813283        0       0.45460345       0.00380752      -0.00387733       0.01061180
Au      -5.69581922       6.54831290      -8.10958938        0       0.29127744       0.00353834      -0.01727831       0.00306300
Au      -4.30597430       5.81292993      -5.81105804        0       0.00460538       0.00784564       0.01492048      -0.01932632
Au      -5.74697805       6.62717744      -3.50642934        0       0.02460024       0.01431801       0.00174873      -0.00771032
Au      -4.29199512       5.79674622      -1.15514320        0       0.00237057      -0.00670811       0.00240038       0.00627235
Au      -5.73806979       8.21632273      -5.79262794        0       0.29456084       0.01353876      -0.01570985      -0.00342561
Au      -7.12914345       9.01938054      -3.42022721        0       0.36937631       0.01492467      -0.02487861      -0.01995937
Au      -5.70534286       8.25880573      -1.15876049        0       0.03741078       0.00222129      -0.00307512      -0.00516671
Au      -7.04059196      10.60899226      -1.12895783        0       0.45843996       0.01974301      -0.03492680       0.00770160