1032
Lattice="75.70891999999999 0.0 0.0 -37.85445999999998 65.56584801308377 0.0 0.0 0.0 42.8168" Properties=species:S:1:pos:R:3:spacegroup_kinds:I:1:energies:R:1:forces:R:3 energy=126.18450377776452 free_energy=126.18450377776452 stress="5.107395840373187e-05 7.51121154729376e-10 1.2803636295972693e-10 7.51121154729376e-10 5.107309108372482e-05 7.392183178530108e-11 1.2803636295972693e-10 7.392183178530108e-11 -7.596938402858576e-05" pbc="T T T"
Au      -8.45594655     -13.05503726      -3.48073560        0       0.45819738       0.00778513       0.00641536      -0.00403069
Au      -7.14979349     -13.88657176      -1.17304023        0       0.37466584       0.00532937      -0.00256596       0.00327418
Au      -8.54239629     -11.46581094      -5.77632895        0       0.36931621       0.00784955      -0.00455301      -0.00605045
Au      -9.93825774     -10.68647780      -3.55097215        0       0.29469300       0.00719492       0.00297975       0.00780288
Au      -8.64242138     -11.55805826      -1.17700170        0       0.15088355       0.01720527       0.00431118      -0.00301194
Au      -9.97628468      -9.05386251      -5.83050692        0       0.28250229       0.01139657      -0.00198713       0.00123302
Au     -11.36557029      -8.21061914      -3.57551765        0       0.29376735      -0.00453572      -0.00859166       0.00494343
Au     -10.06901986      -9.10163685      -1.21482030        0       0.14240998       0.01582838      -0.00559191       0.00227998
Au     -11.40445545      -6.58434981      -5.83070157        0       0.28349976      -0.00119393      -0.00068931      -0.00882471
Au     -12.79340342      -5.73753962      -3.57551765        0       0.29376735      -0.00970845       0.00036779       0.00494343
Au     -11.48975141      -6.63359546      -1.23193898        0       0.14143995      -0.00364168      -0.00210252       0.00337972
Au     -12.82903080      -4.11276130      -5.83050692        0       0.28250229       0.00397738       0.01086329       0.00123302
Au     -14.22390365      -3.26352136      -3.55097215        0       0.29469300       0.00617800       0.00474111       0.00780288
Au     -12.91677218      -4.16918515      -1.21482030        0       0.14240998       0.00307145       0.01650373       0.00227998
Au     -14.20089522      -1.66500331      -5.77632895        0       0.36931621      -0.00001825       0.00907442      -0.00605045
Au     -15.53398071      -0.79552247      -3.48073560        0       0.45819738       0.00944844       0.00353444      -0.00403069
Au     -14.33079628      -1.70550391      -1.17700170        0       0.15088355       0.01233623       0.01274461      -0.00301194
Au      -4.17959375     -13.89303364      -5.65171761        0       0.55202948      -0.00933960      -0.01014034      -0.00388304
Au      -5.70337110     -13.24506609      -3.47335957        0       0.21624540       0.00434144       0.00695231      -0.00131606
Au      -4.30436039     -13.97685038      -1.12439969        0       0.29446765      -0.00258139       0.00611722       0.00181639
Au      -5.67709984     -11.31410254     -10.35432528        0       0.55550484       0.01336758       0.02509892       0.01819731
Au      -7.13704270     -10.68080337      -8.14235175        0       0.29476147       0.01067296       0.00585705      -0.00579406
Au      -5.75262232     -11.63428306      -5.84176131        0       0.14437338       0.00858777       0.00364541       0.00621787
Au      -7.11305526     -10.72857406      -3.50413353        0       0.04162613       0.00519631       0.00099089       0.00575097
Au      -5.73480680     -11.57315012      -1.16318766        0       0.01916495       0.00574486       0.00745097       0.00447797
Au      -7.11872324      -8.99875764     -10.45875716        0       0.29115762       0.01119214      -0.01140800       0.00508214
Au      -8.57865983      -8.25185400      -8.17651159        0       0.20903791       0.00437538      -0.00157628      -0.00177120
Au      -7.15715101      -9.09392979      -5.85425198        0       0.02619598       0.00919284       0.00281178       0.00405116
Au      -8.58245109      -8.26448852      -3.51131473        0       0.01462130       0.00206298      -0.00403151      -0.00787386
Au      -7.19072268      -9.10231086      -1.17060071        0      -0.00033278      -0.00493408       0.00278094       0.00472292
Au      -8.54298056      -6.56127944     -10.43801320        0       0.27922608       0.01009199      -0.00212193      -0.00444297
Au     -10.01507357      -5.78218981      -8.17225590        0       0.20953301      -0.00287240      -0.00165838      -0.00801782
Au      -8.60406940      -6.61977110      -5.85051159        0       0.01782940      -0.00382905      -0.00329692      -0.00572421
Au     -10.01283085      -5.78089498      -3.51389537        0       0.01772212      -0.00483732      -0.00279283      -0.00831460
Au      -8.62265295      -6.63110189      -1.17898261        0      -0.00019054      -0.00846861      -0.00422667       0.00462031
Au      -9.95373848      -4.11777505     -10.43801320        0       0.27922608       0.00320835       0.00980089      -0.00444297
Au     -11.43565863      -3.30338693      -8.17651159        0       0.20903791       0.00082260       0.00457733      -0.00177120
Au     -10.03493816      -4.14143371      -5.85051159        0       0.01782940      -0.00476974      -0.00166760      -0.00572421
Au     -11.44849607      -3.30035299      -3.51131473        0       0.01462130      -0.00245990       0.00380235      -0.00787386
Au     -10.05404269      -4.15186214      -1.17898261        0      -0.00019054      -0.00789471      -0.00522070       0.00462031
Au     -11.35252785      -1.66559293     -10.45875716        0       0.29115762      -0.00428355       0.01539667       0.00508214
Au     -12.81838192      -0.84043519      -8.14235175        0       0.29476147       0.01040883       0.00631454      -0.00579406
Au     -11.45416324      -1.65128628      -5.85425198        0       0.02619598       0.00703149       0.00655534       0.00405116
Au     -12.84775884      -0.79577611      -3.50413353        0       0.04162613       0.00345629       0.00400469       0.00575097
Au     -11.47820730      -1.67616966      -1.17060071        0      -0.00033278      -0.00005868      -0.00566351       0.00472292
Au      -1.41243833     -13.94075354      -5.65528244        0       0.45962400      -0.00741416      -0.00310020      -0.00418244
Au      -2.83999778     -13.28510840      -3.40138040        0       0.16296051      -0.00452507       0.00818251       0.00127612
Au      -1.42777957     -13.99159589      -1.06950393        0       0.29403983      -0.00284099      -0.00518950      -0.00177825
Au      -2.86464860     -11.40404537     -10.39019859        0       0.46844646      -0.01243179       0.00787975       0.00534123
Au      -4.29333275     -10.77259153      -8.12814739        0       0.15257265      -0.00622049       0.00288180      -0.01273881
Au      -2.84744395     -11.59142202      -5.83495304        0       0.10568679       0.00010643       0.01491341       0.00103750
Au      -4.27617309     -10.80825037      -3.51919497        0      -0.00370282       0.00181991       0.00296098       0.01211118
Au      -2.86509873     -11.59766393      -1.13692324        0       0.01414625       0.00538132       0.00529905      -0.00696996
Au      -5.64708295      -8.07456150     -12.68524639        0       0.45387963       0.00321856      -0.01612014      -0.01560737
Au      -4.26412412      -9.04282206     -10.52418386        0       0.11671142      -0.00255589      -0.02575298       0.00210556
Au      -5.71729117      -8.28545490      -8.16436963        0       0.00561382       0.00393922      -0.00259689      -0.00307304
Au      -4.30381458      -9.13526746      -5.83003657        0       0.00094298       0.00820984      -0.00172832       0.00583765
Au      -5.70496559      -8.27317089      -3.49416195        0       0.00288673       0.00262400       0.00349986      -0.00480054
Au      -4.30630470      -9.11220704      -1.16976857        0       0.00032622       0.00424188      -0.00056980      -0.00261112
Au      -7.08285960      -5.71341359     -12.68423287        0       0.36467547      -0.00336003      -0.00011598      -0.00689809
Au      -5.70837631      -6.56885913     -10.44256190        0       0.04657383       0.01404188       0.00232572       0.01084305
Au      -7.17661728      -5.79910363      -8.12996004        0       0.00822480       0.00975130       0.00349799      -0.00675085
Au      -5.72016306      -6.62429948      -5.81784958        0       0.00122139      -0.00389613       0.00351173      -0.00167404
Au      -7.14676311      -5.78799814      -3.49252003        0       0.00087438      -0.01026807      -0.00303465      -0.00398123
Au      -5.74463928      -6.63189668      -1.15700409        0       0.00129228       0.00064087       0.00803634      -0.00988413
Au      -8.48940464      -3.27720613     -12.68423287        0       0.36467547      -0.00178046      -0.00285188      -0.00689809
Au      -7.13451039      -4.11909588     -10.44131356        0       0.03918537       0.00899834       0.00519519      -0.00658895
Au      -8.61049323      -3.31555764      -8.12996004        0       0.00822480       0.00790500       0.00669588      -0.00675085
Au      -7.15661670      -4.13185897      -5.80727030        0       0.00101198      -0.00588804      -0.00339946      -0.00815853
Au      -8.58594850      -3.29525592      -3.49252003        0       0.00087438      -0.00776212      -0.00737509      -0.00398123
Au      -7.18270928      -4.14692352      -1.15801247        0       0.00093481       0.00736078       0.00424975      -0.00628318
Au      -9.81633037      -0.85321312     -12.68524639        0       0.45387963      -0.01235117       0.01084742      -0.01560737
Au      -8.54300056      -1.65914592     -10.44256190        0       0.04657383       0.00903508       0.01099776       0.01084305
Au     -10.03407353      -0.80856853      -8.16436963        0       0.00561382      -0.00027937       0.00470991      -0.00307304
Au      -8.59690668      -1.64163336      -5.81784958        0       0.00122139       0.00109318      -0.00513001      -0.00167404
Au     -10.01727248      -0.80403627      -3.49416195        0       0.00288673       0.00434297       0.00052252      -0.00480054
Au      -8.61572416      -1.65903180      -1.15700409        0       0.00129228       0.00728011      -0.00346316      -0.00988413
Au       1.41242511     -13.94075332      -5.65528192        0       0.45962386       0.00741112      -0.00310177      -0.00418479
Au      -0.00000702     -13.28377517      -3.40004421        0       0.15289992       0.00000035      -0.00507356      -0.01221817
Au       1.42776667     -13.99159590      -1.06950371        0       0.29403987       0.00283862      -0.00518827      -0.00177878
Au      -0.00000740     -11.41309005     -10.40921065        0       0.47234243       0.00000007      -0.00593086      -0.00673341
Au      -1.42247672     -10.77044916      -8.17628113        0       0.14641026      -0.01139578       0.00760170       0.01708406
Au      -0.00000678     -11.60811329      -5.83117214        0       0.09319799      -0.00000035       0.00878543      -0.01401145
Au      -1.42281832     -10.80261845      -3.49733792        0      -0.00461455      -0.00410990      -0.00245501       0.01231528
Au      -0.00000710     -11.60032390      -1.13180055        0       0.01429276       0.00000012       0.00052941      -0.00323516
Au      -2.83975266      -8.08850376     -12.76256647        0       0.36973575       0.00906268      -0.01178748      -0.00008913
Au      -1.42082668      -9.07826306     -10.55325393        0       0.09746539      -0.00343116       0.00606068      -0.01314978
Au      -2.84994657      -8.29815185      -8.17134651        0      -0.00556244      -0.00281805      -0.00202266      -0.00052860
Au      -1.42808608      -9.12531079      -5.84071721        0       0.00206781      -0.00037993      -0.00828156      -0.00288212
Au      -2.85778779      -8.30908258      -3.50049073        0       0.00143043       0.00475638       0.00471114       0.00010809
Au      -1.43470301      -9.11435553      -1.16824384        0       0.00107757       0.00045927      -0.01889866       0.00337027
Au      -4.27110156      -5.71452801     -12.79573185        0       0.21856220       0.00597246       0.00950341      -0.00791546
Au      -2.84445763      -6.57346931     -10.48167665        0       0.01100846       0.00310698      -0.00446125      -0.00597420
Au      -4.28094213      -5.78461012      -8.12544776        0       0.00113360       0.00046034      -0.00153029      -0.01167546
Au      -2.86251304      -6.64970142      -5.81997499        0       0.00166224      -0.00218055       0.00734158       0.00196736
Au      -4.28830652      -5.80368669      -3.48678538        0       0.00240594       0.00515238       0.01127633       0.00485523
Au      -2.87242767      -6.63825863      -1.16653715        0       0.00131187      -0.00143370       0.00998998       0.00004499
Au      -5.69243872      -3.28651542     -12.78508048        0       0.21461854      -0.00281909      -0.00162760       0.00803362
Au      -4.26980492      -4.10417483     -10.48353245        0       0.00482418      -0.00255515      -0.00097267      -0.00799108
Au      -5.71952027      -3.30215095      -8.12272832        0      -0.00106979       0.00496718       0.00286780      -0.01066894
Au      -4.29171351      -4.14283079      -5.80226467        0       0.00224330      -0.00117413       0.00931445      -0.00602429
Au      -5.72862471      -3.30740741      -3.48042841        0       0.00222472       0.00532857       0.00307645       0.00735122
Au      -4.31130426      -4.14988406      -1.15679778        0       0.00114545       0.00344520       0.00498174      -0.00407461
Au      -7.08449072      -0.84159503     -12.79573185        0       0.21856220       0.01121643       0.00042060      -0.00791546
Au      -5.68923565      -1.64564870     -10.48353245        0       0.00482418      -0.00211993      -0.00172649      -0.00799108
Au      -7.15010390      -0.81507616      -8.12544776        0       0.00113360      -0.00109510       0.00116381      -0.01167546
Au      -5.73366699      -1.64529411      -5.80226467        0       0.00224330       0.00747949      -0.00567405      -0.00602429
Au      -7.17030689      -0.81191562      -3.48678538        0       0.00240594       0.01234178      -0.00117607       0.00485523
Au      -5.74957067      -1.65873357      -1.15679778        0       0.00114545       0.00603691       0.00049277      -0.00407461
Au       4.17957974     -13.89303250      -5.65171757        0       0.55202920       0.00934355      -0.01014583      -0.00388665
Au       2.83998399     -13.28510820      -3.40138056        0       0.16296066       0.00452427       0.00818416       0.00128093
Au       4.30434692     -13.97685034      -1.12440016        0       0.29446775       0.00258006       0.00611973       0.00181735
Au       2.86463451     -11.40404467     -10.39019829        0       0.46844624       0.01242900       0.00787602       0.00533862
Au       1.42246262     -10.77044922      -8.17628127        0       0.14641032       0.01139558       0.00760240       0.01708576
Au       2.84743053     -11.59142156      -5.83495242        0       0.10568697      -0.00010969       0.01491821       0.00103491
Au       1.42280359     -10.80261818      -3.49733786        0      -0.00461457       0.00411119      -0.00245458       0.01231535
Au       2.86508436     -11.59766339      -1.13692323        0       0.01414619      -0.00538120       0.00529792      -0.00697039
Au      -0.00000740      -8.09032681     -12.76731523        0       0.37137468       0.00000044      -0.00148071       0.00948778
Au       1.42081206      -9.07826314     -10.55325449        0       0.09746541       0.00343168       0.00606259      -0.01314933
Au      -0.00000686      -8.30145896      -8.18850482        0      -0.00391391       0.00000003       0.00662844       0.00872959
Au       1.42807211      -9.12531040      -5.84071729        0       0.00206781       0.00038011      -0.00828225      -0.00288214
Au      -0.00000760      -8.30652519      -3.49900708        0       0.00132903       0.00000053       0.00294033      -0.00810568
Au       1.43468822      -9.11435491      -1.16824410        0       0.00107758      -0.00045866      -0.01889917       0.00337057
Au      -1.42074151      -5.71106093     -12.80356555        0       0.21528802       0.00291066       0.00173381      -0.00254907
Au      -0.00000757      -6.58328015     -10.48630633        0       0.01331101       0.00000059      -0.00479401      -0.01719556
Au      -1.42769802      -5.79610038      -8.13517241        0       0.00175151       0.00396855       0.00302156      -0.01595683
Au      -0.00000725      -6.64653038      -5.82466509        0       0.00177563       0.00000052       0.00191043       0.00228194
Au      -1.43089313      -5.81515393      -3.49082036        0       0.00136252       0.00137366       0.00576278      -0.00164410
Au      -0.00000767      -6.63700878      -1.16788947        0       0.00161961       0.00000087       0.00455334       0.00297103
Au      -2.84076091      -3.26367003     -12.79193179        0       0.21345017      -0.00101601      -0.00983787       0.00657356
Au      -1.42178839      -4.10858739     -10.48903705        0       0.00705735      -0.00220148       0.00346438      -0.01012043
Au      -2.85873037      -3.30606026      -8.13144649        0       0.00063115       0.01195011       0.00754357      -0.01104021
Au      -1.43185328      -4.15306928      -5.80474181        0       0.00082625      -0.00090899       0.00846483      -0.00953218
Au      -2.86440050      -3.31612845      -3.47846004        0       0.00219020       0.00520401       0.00277108       0.00140412
Au      -1.43829922      -4.15175457      -1.16059043        0       0.00147120       0.00426670       0.00283529      -0.00843062
Au      -4.24681513      -0.82831269     -12.79193179        0       0.21345017      -0.00902785       0.00403904       0.00657356
Au      -2.84492662      -1.64250354     -10.48339440        0       0.00879011       0.00437472       0.00252574      -0.01230341
Au      -4.29251087      -0.82267958      -8.13144649        0       0.00063115       0.01250798       0.00657732      -0.01104021
Au      -2.86751123      -1.65554277      -5.79882000        0       0.00093618       0.00314530       0.00181594      -0.01379062
Au      -4.30406525      -0.82255595      -3.47846004        0       0.00219020       0.00500183       0.00312126       0.00140412
Au      -2.87703464      -1.66104111      -1.15570250        0       0.00154968       0.00548721       0.00316804      -0.00964719
Au       5.70335712     -13.24506528      -3.47336018        0       0.21624537      -0.00433874       0.00695304      -0.00131338
Au       7.14977993     -13.88657083      -1.17304089        0       0.37466586      -0.00533067      -0.00256588       0.00327526
Au       5.67708487     -11.31410097     -10.35432476        0       0.55550435      -0.01336060       0.02508952       0.01819024
Au       4.29331905     -10.77259170      -8.12814763        0       0.15257302       0.00621729       0.00288426      -0.01273048
Au       5.75260862     -11.63428190      -5.84176087        0       0.14437336      -0.00858690       0.00364659       0.00621685
Au       4.27615851     -10.80824956      -3.51919477        0      -0.00370284      -0.00181875       0.00296159       0.01211163
Au       5.73479240     -11.57314960      -1.16318791        0       0.01916493      -0.00574532       0.00745148       0.00447860
Au       2.83973802      -8.08850345     -12.76256740        0       0.36973593      -0.00906213      -0.01178588      -0.00008584
Au       4.26410970      -9.04282196     -10.52418412        0       0.11671178       0.00255296      -0.02574346       0.00210312
Au       2.84993287      -8.29815213      -8.17134671        0      -0.00556245       0.00281676      -0.00202148      -0.00052908
Au       4.30380081      -9.13526656      -5.83003650        0       0.00094294      -0.00821081      -0.00172891       0.00583692
Au       2.85777263      -8.30908161      -3.50049101        0       0.00143041      -0.00475536       0.00471056       0.00010834
Au       4.30628991      -9.11220599      -1.16976885        0       0.00032623      -0.00424185      -0.00057044      -0.00261092
Au       1.42072633      -5.71106074     -12.80356574        0       0.21528803      -0.00290936       0.00173328      -0.00254901
Au       2.84444234      -6.57346896     -10.48167711        0       0.01100836      -0.00310522      -0.00446320      -0.00597478
Au       1.42768385      -5.79610037      -8.13517266        0       0.00175151      -0.00396877       0.00302185      -0.01595672
Au       2.86249871      -6.64970075      -5.81997549        0       0.00166224       0.00218067       0.00734090       0.00196852
Au       1.43087738      -5.81515332      -3.49082058        0       0.00136249      -0.00137169       0.00576221      -0.00164393
Au       2.87241244      -6.63825747      -1.16653747        0       0.00131185       0.00143490       0.00998962       0.00004533
Au      -0.00000751      -3.26078383     -12.79560338        0       0.21341834       0.00000009      -0.00930920       0.00942000
Au       1.42177334      -4.10858712     -10.48903742        0       0.00705737       0.00220219       0.00346416      -0.01011970
Au      -0.00000687      -3.30934563      -8.12955461        0       0.00045136      -0.00000043       0.00585053      -0.01699700
Au       1.43183923      -4.15306891      -5.80474202        0       0.00082625       0.00090922       0.00846454      -0.00953196
Au      -0.00000775      -3.32238834      -3.47939626        0       0.00195715       0.00000102       0.00563008       0.00120837
Au       1.43828432      -4.15175396      -1.16059046        0       0.00147119      -0.00426563       0.00283497      -0.00843069
Au      -1.41658204      -0.81784841     -12.79110505        0       0.21258149      -0.00180342      -0.00104121       0.00099727
Au      -0.00000757      -1.64423090     -10.48227169        0       0.00744306       0.00000097       0.00925877      -0.01064750
Au      -1.43111290      -0.82623781      -8.12246370        0       0.00082192       0.00924953       0.00534022      -0.02758216
Au      -0.00000694      -1.66096783      -5.79583044        0       0.00084520       0.00000061       0.00639056      -0.01478733
Au      -1.43516483      -0.82857719      -3.47386877        0       0.00208221       0.00227761       0.00131498      -0.00545237
Au      -0.00000692      -1.66121258      -1.15633953        0       0.00157159      -0.00000005      -0.00175770      -0.01452845
Au      -8.45124780     -13.13517724       1.17304032        0       0.37466596      -0.00488697       0.00333373      -0.00327313
Au      -7.07804088     -13.85057148       3.48073592        0       0.45819749       0.00166447       0.00995368       0.00403031
Au      -9.95214866     -10.71609943       1.12440010        0       0.29446778       0.00658926       0.00082473      -0.00181726
Au      -8.61889905     -11.56178539       3.47336002        0       0.21624538       0.00385216       0.00723368       0.00131388
Au      -9.94194283     -10.56613874       5.65171824        0       0.55202915      -0.00411599      -0.01316516       0.00388631
Au     -11.40320901      -8.23228038       1.06950402        0       0.29403990      -0.00307363      -0.00505426       0.00177872
Au     -10.08526358      -9.10205301       3.40138110        0       0.16296060       0.00934908       0.00017384      -0.00128101
Au     -11.36684778      -8.19357272       5.65528292        0       0.45962386       0.00101914      -0.00797012       0.00418389
Au     -12.83098197      -5.75930508       1.06950402        0       0.29403990      -0.00591393      -0.00013471       0.00177872
Au     -11.50410475      -6.64188237       3.40004459        0       0.15289992      -0.00439349      -0.00253658       0.01221820
Au     -12.77927953      -5.74716916       5.65528292        0       0.45962386      -0.00639275       0.00486766       0.00418389
Au     -14.25650219      -3.26074043       1.12440010        0       0.29446778       0.00400886       0.00529410      -0.00181726
Au     -12.92525444      -4.18304454       3.40138110        0       0.16296060       0.00482509       0.00800962      -0.00128101
Au     -14.12152950      -3.32688227       5.65171824        0       0.55202915      -0.01345936       0.00301803       0.00388631
Au     -15.60103459      -0.75138325       1.17304032        0       0.37466596       0.00044362      -0.00589910      -0.00327313
Au     -14.32226291      -1.68326942       3.47336002        0       0.21624538       0.00819063      -0.00028077       0.00131388
Au      -5.68838234     -13.26357408       1.17700167        0       0.15088367      -0.00486963       0.01705720       0.00301431
Au      -4.28565243     -13.95001033       3.55097251        0       0.29469298      -0.00101940       0.00772167      -0.00780286
Au      -5.65850569     -13.13082560       5.77632932        0       0.36931631      -0.00786765       0.00452341       0.00604837
Au      -7.15526057     -10.75305141       1.16318825        0       0.01916506       0.00358186       0.00870033      -0.00447893
Au      -5.73471050     -11.52436115       3.50413337        0       0.04162595      -0.00174234       0.00499139      -0.00574858
Au      -7.19929368     -10.79904639       5.84176083        0       0.14437335      -0.00113478       0.00925938      -0.00621576
Au      -5.68134635     -11.52124938       8.14235259        0       0.29476150      -0.00026141       0.01216596       0.00578662
Au      -6.95976960     -10.57354977      10.35432461        0       0.55550375       0.01503986       0.02410335      -0.01818121
Au      -8.61134383      -8.28006816       1.13692396        0       0.01414624       0.00189768       0.00730791       0.00696913
Au      -7.22215357      -9.10738739       3.51919511        0      -0.00370285       0.00165374       0.00305577      -0.01211061
Au      -8.61476433      -8.26165807       5.83495285        0       0.10568703       0.01286519       0.00755345      -0.00103396
Au      -7.18269279      -9.10441959       8.12814875        0       0.15257325       0.00560508      -0.00393929       0.01271988
Au      -8.44388892      -8.18286891      10.39019876        0       0.46844591       0.01302929      -0.00682629      -0.00533462
Au     -10.04619327      -5.80015678       1.13180114        0       0.01429283       0.00045777       0.00026429       0.00323444
Au      -8.64395412      -6.63349390       3.49733855        0      -0.00461455      -0.00007157      -0.00478865      -0.01231493
Au     -10.05293834      -5.80405105       5.83117266        0       0.09319810       0.00760913       0.00439313       0.01401247
Au      -8.61626561      -6.61711397       8.17628216        0       0.14641033       0.01228174      -0.00606636      -0.01708932
Au      -9.88404322      -5.70653940      10.40921180        0       0.47234233      -0.00513814      -0.00296651       0.00673422
Au     -11.47643481      -3.31758502       1.13692396        0       0.01414624       0.00727768      -0.00201051       0.00696913
Au     -10.06676482      -4.16911349       3.49733855        0      -0.00461455      -0.00418287       0.00233234      -0.01231493
Au     -11.46220145      -3.32975231       5.83495285        0       0.10568703       0.01297407       0.00736486      -0.00103396
Au     -10.03873512      -4.15332450       8.17628216        0       0.14641033       0.00088724       0.01366948      -0.01708932
Au     -11.30853033      -3.22116444      10.39019876        0       0.46844591       0.00060290       0.01469685      -0.00533462
Au     -12.89005949      -0.82008830       1.16318825        0       0.01916506       0.00932563      -0.00124818      -0.00447893
Au     -11.49831915      -1.70085135       3.51919511        0      -0.00370285       0.00347325      -0.00009570      -0.01211061
Au     -12.95190887      -0.83522461       5.84176083        0       0.14437335       0.00745147      -0.00561244      -0.00621576
Au     -11.47601857      -1.66816122       8.12814875        0       0.15257325      -0.00060899       0.00682379       0.01271988
Au     -12.63686103      -0.74053898      10.35432461        0       0.55550375       0.02839404       0.00097322      -0.01818121
Au      -2.84776004     -13.27083382       1.21482043        0       0.14241004      -0.01275565       0.01091371      -0.00227919
Au      -1.42784015     -13.94816951       3.57551756        0       0.29376728      -0.00517305      -0.00822384      -0.00494321
Au      -2.85275319     -13.16663464       5.83050715        0       0.28250227      -0.00741922       0.00887570      -0.00123303
Au      -4.28749307     -10.77849196       1.17060144        0      -0.00033276       0.00487835      -0.00288160      -0.00472481
Au      -2.86605225     -11.56485212       3.51131487        0       0.01462127      -0.00452217      -0.00022986       0.00787421
Au      -4.29701929     -10.74522685       5.85425213        0       0.02619589      -0.00216243       0.00936520      -0.00405093
Au      -2.85700614     -11.55525228       8.17651204        0       0.20903798      -0.00355158       0.00300190       0.00177065
Au      -4.23381156     -10.66436116      10.45875764        0       0.29115756      -0.01546781       0.00398801      -0.00507999
Au      -5.73827211      -8.28546065       1.16976964        0       0.00032621      -0.00261340       0.00338860       0.00260916