234
Lattice="37.854459999999996 0.0 0.0 -18.92722999999999 32.78292400654188 0.0 0.0 0.0 42.8168" Properties=species:S:1:pos:R:3:spacegroup_kinds:I:1:energies:R:1:forces:R:3 energy=48.944770423934834 free_energy=48.944770423934834 stress="7.04316937821737e-05 2.5095691648366314e-09 2.707312780486575e-11 2.5095691648366314e-09 7.042879598131082e-05 1.5630677849973295e-11 2.707312780486575e-11 1.5630677849973295e-11 -7.992731163563575e-05" pbc="T T T"
Au      -5.64752324      -6.40397954      -1.20030364        0       0.54542271       0.00550977       0.01040111      -0.00235126
Au      -7.05328125      -4.07219822      -1.25603766        0       0.44294229       0.01018201       0.00587859       0.01456173
Au      -8.36978411      -1.68888541      -1.20030364        0       0.54542271       0.01176252      -0.00042895      -0.00235126
Au      -2.71064039      -8.06510072      -3.55976434        0       0.54851187      -0.01514899      -0.00870261       0.01269375
Au      -2.81673258      -6.48990722      -5.76591539        0       0.36443665       0.01798137       0.01459703       0.02293704
Au      -4.27613077      -5.77710876      -3.49121379        0       0.21836682       0.00998441      -0.00612802      -0.00173809
Au      -2.88826503      -6.69100864      -1.15943928        0       0.15173897      -0.00374152       0.03873439      -0.00434593
Au      -4.25078209      -4.09230314      -5.77860446        0       0.27882477      -0.00271429       0.00270994      -0.00152958
Au      -5.70983040      -3.29655651      -3.51713042        0       0.20497813      -0.01091464      -0.00630157      -0.00262589
Au      -4.27660278      -4.13011509      -1.16209398        0       0.05762562       0.00404851       0.00796146      -0.00419566
Au      -5.66944304      -1.63511029      -5.77860446        0       0.27882477       0.00098973      -0.00370561      -0.00152958
Au      -7.14120185      -0.81466008      -3.49121379        0       0.21836682      -0.00031481       0.01171076      -0.00173809
Au      -5.71509949      -1.63856569      -1.16209398        0       0.05762562       0.00891908      -0.00047461      -0.00419566
Au      -0.00000796      -8.15457446      -3.47271988        0       0.44340581       0.00000037       0.01797502      -0.01193726
Au      -1.36733412      -5.64776220      -7.97464648        0       0.45787798       0.01389585      -0.00614594       0.00392670
Au      -0.00000824      -6.62692250      -5.77234232        0       0.20420901       0.00000099       0.01420077      -0.00112953
Au      -1.41440405      -5.75404870      -3.43649316        0       0.06552556       0.00420765       0.01186953      -0.01117022
Au      -0.00000826      -6.73199477      -1.11864536        0       0.12451450       0.00000132       0.04307520      -0.00345863
Au      -2.79988126      -3.25292866      -8.01169903        0       0.36466705       0.00260991      -0.00465357      -0.01018825
Au      -1.41428927      -4.10757823      -5.76456669        0       0.05060306       0.00258413       0.00970326      -0.01429513
Au      -2.88005077      -3.30704017      -3.46600363        0       0.00861727      -0.02362916      -0.01457060      -0.01887993
Au      -1.42217333      -4.17193532      -1.13840951        0       0.00523357      -0.00170448      -0.00597213      -0.00821041
Au      -4.21707300      -0.79828055      -8.01169903        0       0.36466705      -0.00272515       0.00458704      -0.01018825
Au      -2.85422199      -1.64787022      -5.78483341        0       0.04162874      -0.00835812      -0.00482556      -0.01453672
Au      -4.30401970      -0.84065363      -3.46600363        0       0.00861727      -0.02443308      -0.01317815      -0.01887993
Au      -2.85074756      -1.64586426      -1.15918754        0       0.00375645      -0.00220568      -0.00127345      -0.00393249
Au       2.71062477      -8.06510020      -3.55976357        0       0.54851191       0.01514960      -0.00870433       0.01269307
Au       1.36731899      -5.64776192      -7.97464620        0       0.45787796      -0.01389638      -0.00614660       0.00392644
Au       2.81671648      -6.48990736      -5.76591518        0       0.36443668      -0.01798052       0.01459712       0.02293761
Au       1.41438840      -5.75404866      -3.43649332        0       0.06552574      -0.00420947       0.01187131      -0.01116977
Au       2.88824908      -6.69100678      -1.15943968        0       0.15173885       0.00374450       0.03873338      -0.00434498
Au      -0.00000771      -3.26322708      -8.13700468        0       0.22190026      -0.00000025       0.00245944       0.00610126
Au       1.41427345      -4.10757827      -5.76456638        0       0.05060310      -0.00258337       0.00970400      -0.01429609
Au      -0.00000775      -3.27086782      -3.44328599        0       0.00569097      -0.00000011       0.00484378      -0.01001005
Au       1.42215810      -4.17193491      -1.13840968        0       0.00523355       0.00170592      -0.00597174      -0.00821072
Au      -1.42308046      -0.82160028      -8.12659249        0       0.21468118      -0.02001477      -0.01155553      -0.01499225
Au      -0.00000755      -1.63807127      -5.82751042        0       0.00384388       0.00000008       0.00715868      -0.03358191
Au      -1.42440064      -0.82236248      -3.47339677        0       0.00375562      -0.01416435      -0.00817779      -0.02063686
Au      -0.00000729      -1.65823263      -1.14867842        0       0.00725100       0.00000059      -0.00131856      -0.00883492
Au      -5.62928231      -6.38002123       3.55976683        0       0.54851198       0.00003785      -0.01746942      -0.01269427
Au      -7.06208554      -4.07728138       3.47272204        0       0.44340586       0.01556804       0.00898821       0.01193656
Au      -8.33991513      -1.68506745       3.55976683        0       0.54851198      -0.01511004       0.00876749      -0.01269427
Au      -2.72226872      -8.09287573       1.20030486        0       0.54542261       0.00625197       0.00997220       0.00235193
Au      -4.35047233      -5.84680219       1.15944100        0       0.15173889       0.03541509       0.01612623       0.00434464
Au      -2.86507792      -6.59177890       3.49121453        0       0.21836675      -0.01029981       0.00558234       0.00174021
Au      -4.21207816      -5.68430227       5.76591719        0       0.36443668       0.00365076       0.02287014      -0.02293854
Au      -5.83009558      -3.36599164       1.11864662        0       0.12451449       0.03730309       0.02153695       0.00345878
Au      -4.27597127      -4.10192140       3.43649437        0       0.06552551       0.00817630       0.00957902       0.01117024
Au      -5.73909944      -3.31345500       5.77234406        0       0.20420902       0.01229785       0.00710017       0.00112811
Au      -4.20745836      -4.00801431       7.97464768        0       0.45787795      -0.01226989       0.00896188      -0.00392701
Au      -7.23872891      -0.84419505       1.15944100        0       0.15173889       0.03167327       0.02260725       0.00434464
Au      -5.69036730      -1.65211563       3.43649437        0       0.06552551       0.01238382       0.00229138       0.01117024
Au      -7.02880277      -0.80559214       5.76591719        0       0.36443668       0.02163150      -0.00827342      -0.02293854
Au      -5.57478491      -1.63973525       7.97464768        0       0.45787795       0.00162627      -0.01510698      -0.00392701
Au      -0.00000842      -8.14440719       1.25603863        0       0.44294230       0.00000145       0.01175740      -0.01456119
Au      -1.43850446      -5.76869114       1.16209495        0       0.05762566       0.00487006       0.00748550       0.00419540
Au      -0.00000652      -6.59312285       3.51713064        0       0.20497806      -0.00000018      -0.01260307       0.00262816
Au      -1.41866739      -5.72742324       5.77860507        0       0.27882481       0.00370498      -0.00099641       0.00152883
Au      -2.90193619      -3.31759297       1.13841031        0       0.00523358      -0.00432057      -0.00446428       0.00821010
Au      -1.42397586      -4.14770401       3.46600408        0       0.00861727      -0.00080325      -0.02774835       0.01888024
Au      -2.85014260      -3.27858632       5.76456722        0       0.05060302       0.00711099       0.00708909       0.01429597
Au      -1.41719796      -4.05121893       8.01169921        0       0.36466696      -0.00533470      -0.00006728       0.01018883
Au      -4.32410140      -0.85433056       1.13841031        0       0.00523358      -0.00602647      -0.00150958       0.00821010
Au      -2.83267119      -1.63542786       3.44328657        0       0.00569092       0.00419534       0.00242218       0.01000978
Au      -4.26442386      -0.82897932       5.76456722        0       0.05060302       0.00969482       0.00261375       0.01429597
Au      -2.82605374      -1.63160728       8.13700521        0       0.22190027       0.00213082       0.00123023      -0.00610112
Au       2.72225233      -8.09287476       1.20030349        0       0.54542270      -0.00625134       0.00997181       0.00235271
Au       1.43848873      -5.76869060       1.16209470        0       0.05762580      -0.00486990       0.00748500       0.00419532
Au       2.86506469      -6.59177849       3.49121345        0       0.21836680       0.01029967       0.00558278       0.00173959
Au       1.41865537      -5.72742284       5.77860443        0       0.27882477      -0.00370454      -0.00099685       0.00152915
Au      -0.00000702      -3.29173888       1.15918769        0       0.00375655      -0.00000052      -0.00254820       0.00393336
Au       1.42396265      -4.14770356       3.46600357        0       0.00861729       0.00080432      -0.02774853       0.01888080
Au      -0.00000609      -3.29575060       5.78483327        0       0.04162878      -0.00000073      -0.00965105       0.01453762
Au       1.41718553      -4.05121879       8.01169891        0       0.36466701       0.00533583      -0.00006703       0.01018840
Au      -1.43608804      -0.82911020       1.14867855        0       0.00725101      -0.00114368      -0.00066030       0.00883486
Au      -0.00000643      -1.64473552       3.47339689        0       0.00375561       0.00000049      -0.01635461       0.02063672
Au      -1.41862730      -0.81902924       5.82751078        0       0.00384387       0.00619910       0.00357905       0.03358145
Au      -0.00000609      -1.64321048       8.12659269        0       0.21468120       0.00000022      -0.02311108       0.01499204
Au      -7.02880434       0.80561506      -5.76591539        0       0.36443665       0.02163209       0.00827381       0.02293704
Au      -8.33991582       1.68509034      -3.55976434        0       0.54851187      -0.01511118      -0.00876811       0.01269375
Au      -7.23872949       0.84421685      -1.15943928        0       0.15173897       0.03167421      -0.02260744      -0.00434593
Au      -5.57478612       1.63975843      -7.97464648        0       0.45787798       0.00162539       0.01510713       0.00392670
Au      -4.26442525       0.82900209      -5.76456669        0       0.05060306       0.00969534      -0.00261371      -0.01429513
Au      -5.69036789       1.65213792      -3.43649316        0       0.06552556       0.01238314      -0.00229084      -0.01117022
Au      -4.32410215       0.85435284      -1.13840951        0       0.00523357      -0.00602426       0.00150994      -0.00821041
Au      -5.73910087       3.31347753      -5.77234232        0       0.20420901       0.01229872      -0.00709952      -0.00112953
Au      -7.06208614       4.07730375      -3.47271988        0       0.44340581       0.01556701      -0.00898719      -0.01193726
Au      -5.83009614       3.36601365      -1.11864536        0       0.12451450       0.03730487      -0.02153646      -0.00345863
Au      -2.82605492       1.63163027      -8.13700468        0       0.22190026       0.00212981      -0.00122994       0.00610126
Au      -1.41862863       0.81905251      -5.82751042        0       0.00384388       0.00619964      -0.00357927      -0.03358191
Au      -2.83267202       1.63545061      -3.44328599        0       0.00569097       0.00419478      -0.00242199      -0.01001005
Au      -1.43608875       0.82913342      -1.14867842        0       0.00725100      -0.00114161       0.00065979      -0.00883492
Au      -4.20745932       4.00803736      -7.97464620        0       0.45787796      -0.01227130      -0.00896132       0.00392644
Au      -2.85014392       3.27860929      -5.76456638        0       0.05060310       0.00711223      -0.00708927      -0.01429609
Au      -4.27597163       4.10194403      -3.43649332        0       0.06552574       0.00817612      -0.00958116      -0.01116977
Au      -2.90193609       3.31761592      -1.13840968        0       0.00523355      -0.00431872       0.00446324      -0.00821072
Au      -4.21207992       5.68432512      -5.76591518        0       0.36443668       0.00365122      -0.02287014       0.02293761
Au      -5.62928279       6.38004342      -3.55976357        0       0.54851191       0.00003663       0.01747211       0.01269307
Au      -4.35047083       5.84682388      -1.15943968        0       0.15173885       0.03541634      -0.01612386      -0.00434498
Au      -8.36978385       1.68890742       1.20030486        0       0.54542261       0.01176216       0.00042826       0.00235193
Au      -7.14120046       0.81468261       3.49121453        0       0.21836675      -0.00031546      -0.01171107       0.00174021
Au      -5.71509882       1.63858757       1.16209495        0       0.05762566       0.00891766       0.00047484       0.00419540
Au      -4.30401849       0.84067615       3.46600408        0       0.00861727      -0.02443240       0.01317854       0.01888024
Au      -5.66944124       1.63513304       5.77860507        0       0.27882481       0.00098958       0.00370681       0.00152883
Au      -4.21707101       0.79830344       8.01169921        0       0.36466696      -0.00272562      -0.00458634       0.01018883
Au      -7.05328126       4.07221972       1.25603863        0       0.44294230       0.01018293      -0.00587744      -0.01456119
Au      -5.70982866       3.29657919       3.51713064        0       0.20497806      -0.01091467       0.00630138       0.00262816
Au      -2.85074652       1.64588678       1.15918769        0       0.00375655      -0.00220707       0.00127365       0.00393336
Au      -1.42439947       0.82238561       3.47339689        0       0.00375561      -0.01416326       0.00817773       0.02063672
Au      -2.85422030       1.64789345       5.78483327        0       0.04162878      -0.00835841       0.00482489       0.01453762
Au      -1.42307858       0.82162338       8.12659269        0       0.21468120      -0.02001468       0.01155573       0.01499204
Au      -4.27660176       4.13013650       1.16209470        0       0.05762580       0.00404725      -0.00795995       0.00419532
Au      -2.88004884       3.30706303       3.46600357        0       0.00861729      -0.02362877       0.01457083       0.01888080
Au      -4.25077951       4.09232642       5.77860443        0       0.27882477      -0.00271557      -0.00270980       0.00152915
Au      -2.79987914       3.25295148       8.01169891        0       0.36466701       0.00260987       0.00465448       0.01018840
Au      -5.64752248       6.40400047       1.20030349        0       0.54542270       0.00551017      -0.01039972       0.00235271
Au      -4.27612880       5.77713146       3.49121345        0       0.21836680       0.00998467       0.00612839       0.00173959
Au       4.27611528      -5.77710805      -3.49121345        0       0.21836680      -0.00998467      -0.00612839      -0.00173959
Au       5.64750896      -6.40397705      -1.20030349        0       0.54542270      -0.00551017       0.01039972      -0.00235271
Au       2.79986563      -3.25292807      -8.01169891        0       0.36466701      -0.00260987      -0.00465448      -0.01018840
Au       4.25076599      -4.09230301      -5.77860443        0       0.27882477       0.00271557       0.00270980      -0.00152915
Au       2.88003532      -3.30703961      -3.46600357        0       0.00861729       0.02362877      -0.01457083      -0.01888080
Au       4.27658824      -4.13011308      -1.16209470        0       0.05762580      -0.00404725       0.00795995      -0.00419532
Au       1.42306506      -0.82159997      -8.12659269        0       0.21468120       0.02001468      -0.01155573      -0.01499204
Au       2.85420679      -1.64787003      -5.78483327        0       0.04162878       0.00835841      -0.00482489      -0.01453762
Au       1.42438595      -0.82236219      -3.47339689        0       0.00375561       0.01416326      -0.00817773      -0.02063672
Au       2.85073301      -1.64586336      -1.15918769        0       0.00375655       0.00220707      -0.00127365      -0.00393336
Au       5.70981514      -3.29655578      -3.51713064        0       0.20497806       0.01091467      -0.00630138      -0.00262816
Au       7.05326774      -4.07219631      -1.25603863        0       0.44294230      -0.01018293       0.00587744       0.01456119
Au       4.21705749      -0.79828003      -8.01169921        0       0.36466696       0.00272562       0.00458634      -0.01018883
Au       5.66942772      -1.63510963      -5.77860507        0       0.27882481      -0.00098958      -0.00370681      -0.00152883
Au       4.30400497      -0.84065274      -3.46600408        0       0.00861727       0.02443240      -0.01317854      -0.01888024
Au       5.71508530      -1.63856416      -1.16209495        0       0.05762566      -0.00891766      -0.00047484      -0.00419540
Au       7.14118694      -0.81465919      -3.49121453        0       0.21836675       0.00031546       0.01171107      -0.00174021
Au       8.36977033      -1.68888400      -1.20030486        0       0.54542261      -0.01176216      -0.00042826      -0.00235193
Au       4.35045731      -5.84680047       1.15943968        0       0.15173885      -0.03541634       0.01612386       0.00434498
Au       5.62926927      -6.38002001       3.55976357        0       0.54851191      -0.00003663      -0.01747211      -0.01269307
Au       4.21206640      -5.68430170       5.76591518        0       0.36443668      -0.00365122       0.02287014      -0.02293761
Au       2.90192257      -3.31759250       1.13840968        0       0.00523355       0.00431872      -0.00446324       0.00821072
Au       4.27595811      -4.10192062       3.43649332        0       0.06552574      -0.00817612       0.00958116       0.01116977
Au       2.85013040      -3.27858587       5.76456638        0       0.05060310      -0.00711223       0.00708927       0.01429609
Au       4.20744580      -4.00801394       7.97464620        0       0.45787796       0.01227130       0.00896132      -0.00392644
Au       1.43607523      -0.82911000       1.14867842        0       0.00725100       0.00114161      -0.00065979       0.00883492
Au       2.83265850      -1.63542720       3.44328599        0       0.00569097      -0.00419478       0.00242199       0.01001005
Au       1.41861511      -0.81902909       5.82751042        0       0.00384388      -0.00619964       0.00357927       0.03358191
Au       2.82604140      -1.63160686       8.13700468        0       0.22190026      -0.00212981       0.00122994      -0.00610126
Au       5.83008262      -3.36599023       1.11864536        0       0.12451450      -0.03730487       0.02153646       0.00345863
Au       7.06207262      -4.07728033       3.47271988        0       0.44340581      -0.01556701       0.00898719       0.01193726
Au       5.73908735      -3.31345411       5.77234232        0       0.20420901      -0.01229872       0.00709952       0.00112953
Au       4.32408863      -0.85432943       1.13840951        0       0.00523357       0.00602426      -0.00150994       0.00821041
Au       5.69035437      -1.65211451       3.43649316        0       0.06552556      -0.01238314       0.00229084       0.01117022
Au       4.26441173      -0.82897868       5.76456669        0       0.05060306      -0.00969534       0.00261371       0.01429513
Au       5.57477260      -1.63973502       7.97464648        0       0.45787798      -0.00162539      -0.01510713      -0.00392670
Au       7.23871598      -0.84419343       1.15943928        0       0.15173897      -0.03167421       0.02260744       0.00434593
Au       8.33990230      -1.68506692       3.55976434        0       0.54851187       0.01511118       0.00876811      -0.01269375
Au       7.02879082      -0.80559164       5.76591539        0       0.36443665      -0.02163209      -0.00827381      -0.02293704
Au      -0.00000743       1.64323389      -8.12659269        0       0.21468120      -0.00000022       0.02311108      -0.01499204
Au       1.41861378       0.81905266      -5.82751078        0       0.00384387      -0.00619910      -0.00357905      -0.03358145
Au      -0.00000709       1.64475893      -3.47339689        0       0.00375561      -0.00000049       0.01635461      -0.02063672
Au       1.43607452       0.82913362      -1.14867855        0       0.00725101       0.00114368       0.00066030      -0.00883486
Au      -1.41719905       4.05124221      -8.01169891        0       0.36466701      -0.00533583       0.00006703      -0.01018840
Au      -0.00000743       3.29577401      -5.78483327        0       0.04162878       0.00000073       0.00965105      -0.01453762
Au      -1.42397617       4.14772698      -3.46600357        0       0.00861729      -0.00080432       0.02774853      -0.01888080
Au      -0.00000650       3.29176230      -1.15918769        0       0.00375655       0.00000052       0.00254820      -0.00393336
Au      -1.41866889       5.72744626      -5.77860443        0       0.27882477       0.00370454       0.00099685      -0.00152915
Au      -2.86507821       6.59180190      -3.49121345        0       0.21836680      -0.01029967      -0.00558278      -0.00173959
Au      -1.43850225       5.76871402      -1.16209470        0       0.05762580       0.00486990      -0.00748500      -0.00419532
Au      -2.72226585       8.09289817      -1.20030349        0       0.54542270       0.00625134      -0.00997181      -0.00235271
Au       2.82604022       1.63163070      -8.13700521        0       0.22190027      -0.00213082      -0.00123023       0.00610112
Au       4.26441035       0.82900274      -5.76456722        0       0.05060302      -0.00969482      -0.00261375      -0.01429597
Au       2.83265767       1.63545128      -3.44328657        0       0.00569092      -0.00419534      -0.00242218      -0.01000978
Au       4.32408789       0.85435398      -1.13841031        0       0.00523358       0.00602647       0.00150958      -0.00821010
Au       1.41718444       4.05124235      -8.01169921        0       0.36466696       0.00533470       0.00006728      -0.01018883
Au       2.85012908       3.27860974      -5.76456722        0       0.05060302      -0.00711099      -0.00708909      -0.01429597
Au       1.42396234       4.14772743      -3.46600408        0       0.00861727       0.00080325       0.02774835      -0.01888024
Au       2.90192267       3.31761638      -1.13841031        0       0.00523358       0.00432057       0.00446428      -0.00821010
Au       1.41865387       5.72744666      -5.77860507        0       0.27882481      -0.00370498       0.00099641      -0.00152883
Au      -0.00000699       6.59314627      -3.51713064        0       0.20497806       0.00000018       0.01260307      -0.00262816
Au       1.43849095       5.76871455      -1.16209495        0       0.05762566      -0.00487006      -0.00748550      -0.00419540
Au      -0.00000510       8.14443061      -1.25603863        0       0.44294230      -0.00000145      -0.01175740       0.01456119
Au       5.57477139       1.63975867      -7.97464768        0       0.45787795      -0.00162627       0.01510698       0.00392701
Au       7.02878925       0.80561556      -5.76591719        0       0.36443668      -0.02163150       0.00827342       0.02293854
Au       5.69035378       1.65213905      -3.43649437        0       0.06552551      -0.01238382      -0.00229138      -0.01117024
Au       7.23871540       0.84421846      -1.15944100        0       0.15173889      -0.03167327      -0.02260725      -0.00434464
Au       4.20744484       4.00803772      -7.97464768        0       0.45787795       0.01226989      -0.00896188       0.00392701
Au       5.73908592       3.31347841      -5.77234406        0       0.20420902      -0.01229785      -0.00710017      -0.00112811
Au       4.27595775       4.10194482      -3.43649437        0       0.06552551      -0.00817630      -0.00957902      -0.01117024
Au       5.83008206       3.36601506      -1.11864662        0       0.12451449      -0.03730309      -0.02153695      -0.00345878
Au       4.21206464       5.68432569      -5.76591719        0       0.36443668      -0.00365076      -0.02287014       0.02293854
Au       2.86506440       6.59180232      -3.49121453        0       0.21836675       0.01029981      -0.00558234      -0.00174021
Au       4.35045881       5.84682561      -1.15944100        0       0.15173889      -0.03541509      -0.01612623      -0.00434464
Au       2.72225520       8.09289915      -1.20030486        0       0.54542261      -0.00625197      -0.00997220      -0.00235193
Au       8.33990161       1.68509087      -3.55976683        0       0.54851198       0.01511004      -0.00876749       0.01269427
Au       7.06207202       4.07730480      -3.47272204        0       0.44340586      -0.01556804      -0.00898821      -0.01193656
Au       5.62926879       6.38004464      -3.55976683        0       0.54851198      -0.00003785       0.01746942       0.01269427
Au      -0.00000623       1.65825605       1.14867842        0       0.00725100      -0.00000059       0.00131856       0.00883492
Au       1.42438712       0.82238590       3.47339677        0       0.00375562       0.01416435       0.00817779       0.02063686
Au      -0.00000597       1.63809469       5.82751042        0       0.00384388      -0.00000008      -0.00715868       0.03358191
Au       1.42306695       0.82162369       8.12659249        0       0.21468118       0.02001477       0.01155553       0.01499225
Au      -1.42217162       4.17195833       1.13840968        0       0.00523355      -0.00170592       0.00597174       0.00821072
Au      -0.00000577       3.27089123       3.44328599        0       0.00569097       0.00000011      -0.00484378       0.01001005
Au      -1.41428697       4.10760168       5.76456638        0       0.05060310       0.00258337      -0.00970400       0.01429609
Au      -0.00000581       3.26325049       8.13700468        0       0.22190026       0.00000025      -0.00245944      -0.00610126
Au      -2.88826260       6.69103020       1.15943968        0       0.15173885      -0.00374450      -0.03873338       0.00434498
Au      -1.41440192       5.75407208       3.43649332        0       0.06552574       0.00420947      -0.01187131       0.01116977
Au      -2.81673000       6.48993077       5.76591518        0       0.36443668       0.01798052      -0.01459712      -0.02293761
Au      -1.36733251       5.64778534       7.97464620        0       0.45787796       0.01389638       0.00614660      -0.00392644
Au      -2.71063829       8.06512362       3.55976357        0       0.54851191      -0.01514960       0.00870433      -0.01269307
Au       2.85073404       1.64588768       1.15918754        0       0.00375645       0.00220568       0.00127345       0.00393249
Au       4.30400618       0.84067705       3.46600363        0       0.00861727       0.02443308       0.01317815       0.01887993
Au       2.85420847       1.64789364       5.78483341        0       0.04162874       0.00835812       0.00482556       0.01453672
Au       4.21705948       0.79830397       8.01169903        0       0.36466705       0.00272515      -0.00458704       0.01018825
Au       1.42215981       4.17195873       1.13840951        0       0.00523357       0.00170448       0.00597213       0.00821041
Au       2.88003725       3.30706358       3.46600363        0       0.00861727       0.02362916       0.01457060       0.01887993
Au       1.41427575       4.10760165       5.76456669        0       0.05060306      -0.00258413      -0.00970326       0.01429513
Au       2.79986774       3.25295207       8.01169903        0       0.36466705      -0.00260991       0.00465357       0.01018825
Au      -0.00000526       6.73201819       1.11864536        0       0.12451450      -0.00000132      -0.04307520       0.00345863
Au       1.41439053       5.75407211       3.43649316        0       0.06552556      -0.00420765      -0.01186953       0.01117022
Au      -0.00000528       6.62694591       5.77234232        0       0.20420901      -0.00000099      -0.01420077       0.00112953
Au       1.36732060       5.64778561       7.97464648        0       0.45787798      -0.01389585       0.00614594      -0.00392670
Au      -0.00000556       8.15459787       3.47271988        0       0.44340581      -0.00000037      -0.01797502       0.01193726
Au       5.71508597       1.63858911       1.16209398        0       0.05762562      -0.00891908       0.00047461       0.00419566
Au       7.14118833       0.81468350       3.49121379        0       0.21836682       0.00031481      -0.01171076       0.00173809
Au       5.66942953       1.63513371       5.77860446        0       0.27882477      -0.00098973       0.00370561       0.00152958
Au       4.27658926       4.13013850       1.16209398        0       0.05762562      -0.00404851      -0.00796146       0.00419566