55
Properties=species:S:1:pos:R:3:energies:R:1:forces:R:3 energy=17.400239672304487 free_energy=17.400239672304487 pbc="F F F"
Au       0.00000000       0.00000000      -0.00000000       0.24336243      -0.00000000      -0.00000000      -0.00000000
Au      -1.43961373       2.32934394      -0.00000000       0.14630851       0.01841795      -0.02980087       0.00000000
Au       1.43961373       2.32934394      -0.00000000       0.14630851      -0.01841795      -0.02980087       0.00000000
Au      -1.43961373      -2.32934394       0.00000000       0.14630851       0.01841795       0.02980087      -0.00000000
Au       1.43961373      -2.32934394       0.00000000       0.14630851      -0.01841795       0.02980087      -0.00000000
Au      -0.00000000      -1.43961373       2.32934394       0.14630851      -0.00000000       0.01841795      -0.02980087
Au       0.00000000       1.43961373       2.32934394       0.14630851      -0.00000000      -0.01841795      -0.02980087
Au       0.00000000      -1.43961373      -2.32934394       0.14630851       0.00000000       0.01841795       0.02980087
Au       0.00000000       1.43961373      -2.32934394       0.14630851      -0.00000000      -0.01841795       0.02980087
Au       2.32934394       0.00000000      -1.43961373       0.14630851      -0.02980087      -0.00000000       0.01841795
Au       2.32934394       0.00000000       1.43961373       0.14630851      -0.02980087      -0.00000000      -0.01841795
Au      -2.32934394       0.00000000      -1.43961373       0.14630851       0.02980087      -0.00000000       0.01841795
Au      -2.32934394      -0.00000000       1.43961373       0.14630851       0.02980087       0.00000000      -0.01841795
Au      -2.81323085       4.55190314       0.00000000       0.50545130      -0.00449171       0.00726774       0.00000000
Au       2.81323085       4.55190314       0.00000000       0.50545130       0.00449171       0.00726774      -0.00000000
Au      -2.81323085      -4.55190314       0.00000000       0.50545130      -0.00449171      -0.00726774      -0.00000000
Au       2.81323085      -4.55190314       0.00000000       0.50545130       0.00449171      -0.00726774      -0.00000000
Au      -0.00000000      -2.81323085       4.55190314       0.50545130       0.00000000      -0.00449171       0.00726774
Au      -0.00000000       2.81323085       4.55190314       0.50545130       0.00000000       0.00449171       0.00726774
Au      -0.00000000      -2.81323085      -4.55190314       0.50545130       0.00000000      -0.00449171      -0.00726774
Au      -0.00000000       2.81323085      -4.55190314       0.50545130      -0.00000000       0.00449171      -0.00726774
Au       4.55190314       0.00000000      -2.81323085       0.50545130       0.00726774      -0.00000000      -0.00449171
Au       4.55190314      -0.00000000       2.81323085       0.50545130       0.00726774       0.00000000       0.00449171
Au      -4.55190314       0.00000000      -2.81323085       0.50545130      -0.00726774      -0.00000000      -0.00449171
Au      -4.55190314       0.00000000       2.81323085       0.50545130      -0.00726774       0.00000000       0.00449171
Au      -0.00000000       4.66846924       0.00000000       0.31119199      -0.00000000       0.01867101      -0.00000000
Au       0.00000000      -4.66846924       0.00000000       0.31119199      -0.00000000      -0.01867101      -0.00000000
Au      -1.44263633      -3.77687095       2.33423462       0.31119199      -0.00576966      -0.01510516       0.00933551
Au       1.44263633      -3.77687095       2.33423462       0.31119199       0.00576966      -0.01510516       0.00933551
Au      -1.44263633       3.77687095       2.33423462       0.31119199      -0.00576966       0.01510516       0.00933551
Au       1.44263633       3.77687095       2.33423462       0.31119199       0.00576966       0.01510516       0.00933551
Au      -0.00000000      -0.00000000       4.66846924       0.31119199       0.00000000      -0.00000000       0.01867101
Au      -1.44263633      -3.77687095      -2.33423462       0.31119199      -0.00576966      -0.01510516      -0.00933551
Au       1.44263633      -3.77687095      -2.33423462       0.31119199       0.00576966      -0.01510516      -0.00933551
Au      -1.44263633       3.77687095      -2.33423462       0.31119199      -0.00576966       0.01510516      -0.00933551
Au       1.44263633       3.77687095      -2.33423462       0.31119199       0.00576966       0.01510516      -0.00933551
Au      -0.00000000      -0.00000000      -4.66846924       0.31119199      -0.00000000       0.00000000      -0.01867101
Au       3.77687095       2.33423462      -1.44263633       0.31119199       0.01510516       0.00933551      -0.00576966
Au       3.77687095      -2.33423462      -1.44263633       0.31119199       0.01510516      -0.00933551      -0.00576966
Au       2.33423462      -1.44263633      -3.77687095       0.31119199       0.00933551      -0.00576966      -0.01510516
Au       2.33423462       1.44263633      -3.77687095       0.31119199       0.00933551       0.00576966      -0.01510516
Au       3.77687095       2.33423462       1.44263633       0.31119199       0.01510516       0.00933551       0.00576966
Au       3.77687095      -2.33423462       1.44263633       0.31119199       0.01510516      -0.00933551       0.00576966
Au       2.33423462      -1.44263633       3.77687095       0.31119199       0.00933551      -0.00576966       0.01510516
Au       2.33423462       1.44263633       3.77687095       0.31119199       0.00933551       0.00576966       0.01510516
Au       4.66846924      -0.00000000       0.00000000       0.31119199       0.01867101       0.00000000       0.00000000
Au      -3.77687095       2.33423462      -1.44263633       0.31119199      -0.01510516       0.00933551      -0.00576966
Au      -3.77687095      -2.33423462      -1.44263633       0.31119199      -0.01510516      -0.00933551      -0.00576966
Au      -2.33423462      -1.44263633      -3.77687095       0.31119199      -0.00933551      -0.00576966      -0.01510516
Au      -2.33423462       1.44263633      -3.77687095       0.31119199      -0.00933551       0.00576966      -0.01510516
Au      -3.77687095       2.33423462       1.44263633       0.31119199      -0.01510516       0.00933551       0.00576966
Au      -3.77687095      -2.33423462       1.44263633       0.31119199      -0.01510516      -0.00933551       0.00576966
Au      -2.33423462      -1.44263633       3.77687095       0.31119199      -0.00933551      -0.00576966       0.01510516
Au      -2.33423462       1.44263633       3.77687095       0.31119199      -0.00933551       0.00576966       0.01510516
Au      -4.66846924       0.00000000      -0.00000000       0.31119199      -0.01867101      -0.00000000      -0.00000000
