923
Properties=species:S:1:pos:R:3:energies:R:1:forces:R:3 energy=117.54345100779274 free_energy=117.54345100779274 pbc="F F F"
Au      -0.00000000      -0.00000000       0.00000000       0.39604564       0.00000000       0.00000000      -0.00000000
Au      -1.42136408       2.29981539       0.00000000       0.09553962       0.02240718      -0.03625558      -0.00000000
Au       1.42136408       2.29981539       0.00000000       0.09553962      -0.02240718      -0.03625558      -0.00000000
Au      -1.42136408      -2.29981539       0.00000000       0.09553962       0.02240718       0.03625558      -0.00000000
Au       1.42136408      -2.29981539       0.00000000       0.09553962      -0.02240718       0.03625558      -0.00000000
Au      -0.00000000      -1.42136408       2.29981539       0.09553962       0.00000000       0.02240718      -0.03625558
Au      -0.00000000       1.42136408       2.29981539       0.09553962       0.00000000      -0.02240718      -0.03625558
Au      -0.00000000      -1.42136408      -2.29981539       0.09553962       0.00000000       0.02240718       0.03625558
Au      -0.00000000       1.42136408      -2.29981539       0.09553962       0.00000000      -0.02240718       0.03625558
Au       2.29981539      -0.00000000      -1.42136408       0.09553962      -0.03625558       0.00000000       0.02240718
Au       2.29981539      -0.00000000       1.42136408       0.09553962      -0.03625558       0.00000000      -0.02240718
Au      -2.29981539      -0.00000000      -1.42136408       0.09553962       0.03625558       0.00000000       0.02240718
Au      -2.29981539      -0.00000000       1.42136408       0.09553962       0.03625558       0.00000000      -0.02240718
Au      -2.84915714       4.61003309       0.00000000       0.05729989      -0.00966742       0.01564222      -0.00000000
Au       2.84915714       4.61003309       0.00000000       0.05729989       0.00966742       0.01564222      -0.00000000
Au      -2.84915714      -4.61003309       0.00000000       0.05729989      -0.00966742      -0.01564222      -0.00000000
Au       2.84915714      -4.61003309       0.00000000       0.05729989       0.00966742      -0.01564222      -0.00000000
Au      -0.00000000      -2.84915714       4.61003309       0.05729989       0.00000000      -0.00966742       0.01564222
Au      -0.00000000       2.84915714       4.61003309       0.05729989       0.00000000       0.00966742       0.01564222
Au      -0.00000000      -2.84915714      -4.61003309       0.05729989       0.00000000      -0.00966742      -0.01564222
Au      -0.00000000       2.84915714      -4.61003309       0.05729989       0.00000000       0.00966742      -0.01564222
Au       4.61003309      -0.00000000      -2.84915714       0.05729989       0.01564222       0.00000000      -0.00966742
Au       4.61003309      -0.00000000       2.84915714       0.05729989       0.01564222       0.00000000       0.00966742
Au      -4.61003309      -0.00000000      -2.84915714       0.05729989      -0.01564222       0.00000000      -0.00966742
Au      -4.61003309      -0.00000000       2.84915714       0.05729989      -0.01564222       0.00000000       0.00966742
Au       0.00000000       4.67763205       0.00000000       0.02858735      -0.00000000       0.00969497      -0.00000000
Au       0.00000000      -4.67763205       0.00000000       0.02858735      -0.00000000      -0.00969497      -0.00000000
Au      -1.44546780      -3.78428382       2.33881602       0.02858735      -0.00299591      -0.00784339       0.00484748
Au       1.44546780      -3.78428382       2.33881602       0.02858735       0.00299591      -0.00784339       0.00484748
Au      -1.44546780       3.78428382       2.33881602       0.02858735      -0.00299591       0.00784339       0.00484748
Au       1.44546780       3.78428382       2.33881602       0.02858735       0.00299591       0.00784339       0.00484748
Au      -0.00000000       0.00000000       4.67763205       0.02858735       0.00000000      -0.00000000       0.00969497
Au      -1.44546780      -3.78428382      -2.33881602       0.02858735      -0.00299591      -0.00784339      -0.00484748
Au       1.44546780      -3.78428382      -2.33881602       0.02858735       0.00299591      -0.00784339      -0.00484748
Au      -1.44546780       3.78428382      -2.33881602       0.02858735      -0.00299591       0.00784339      -0.00484748
Au       1.44546780       3.78428382      -2.33881602       0.02858735       0.00299591       0.00784339      -0.00484748
Au      -0.00000000       0.00000000      -4.67763205       0.02858735       0.00000000      -0.00000000      -0.00969497
Au       3.78428382       2.33881602      -1.44546780       0.02858735       0.00784339       0.00484748      -0.00299591
Au       3.78428382      -2.33881602      -1.44546780       0.02858735       0.00784339      -0.00484748      -0.00299591
Au       2.33881602      -1.44546780      -3.78428382       0.02858735       0.00484748      -0.00299591      -0.00784339
Au       2.33881602       1.44546780      -3.78428382       0.02858735       0.00484748       0.00299591      -0.00784339
Au       3.78428382       2.33881602       1.44546780       0.02858735       0.00784339       0.00484748       0.00299591
Au       3.78428382      -2.33881602       1.44546780       0.02858735       0.00784339      -0.00484748       0.00299591
Au       2.33881602      -1.44546780       3.78428382       0.02858735       0.00484748      -0.00299591       0.00784339
Au       2.33881602       1.44546780       3.78428382       0.02858735       0.00484748       0.00299591       0.00784339
Au       4.67763205      -0.00000000      -0.00000000       0.02858735       0.00969497       0.00000000       0.00000000
Au      -3.78428382       2.33881602      -1.44546780       0.02858735      -0.00784339       0.00484748      -0.00299591
Au      -3.78428382      -2.33881602      -1.44546780       0.02858735      -0.00784339      -0.00484748      -0.00299591
Au      -2.33881602      -1.44546780      -3.78428382       0.02858735      -0.00484748      -0.00299591      -0.00784339
Au      -2.33881602       1.44546780      -3.78428382       0.02858735      -0.00484748       0.00299591      -0.00784339
Au      -3.78428382       2.33881602       1.44546780       0.02858735      -0.00784339       0.00484748       0.00299591
Au      -3.78428382      -2.33881602       1.44546780       0.02858735      -0.00784339      -0.00484748       0.00299591
Au      -2.33881602      -1.44546780       3.78428382       0.02858735      -0.00484748      -0.00299591       0.00784339
Au      -2.33881602       1.44546780       3.78428382       0.02858735      -0.00484748       0.00299591       0.00784339
Au      -4.67763205      -0.00000000      -0.00000000       0.02858735      -0.00969497       0.00000000       0.00000000
Au      -4.28771689       6.93767166       0.00000000       0.04309466       0.00783735      -0.01268110      -0.00000000
Au       4.28771689       6.93767166       0.00000000       0.04309466      -0.00783735      -0.01268110      -0.00000000
Au      -4.28771689      -6.93767166       0.00000000       0.04309466       0.00783735       0.01268110      -0.00000000
Au       4.28771689      -6.93767166       0.00000000       0.04309466      -0.00783735       0.01268110      -0.00000000
Au      -0.00000000      -4.28771689       6.93767166       0.04309466       0.00000000       0.00783735      -0.01268110
Au      -0.00000000       4.28771689       6.93767166       0.04309466       0.00000000      -0.00783735      -0.01268110
Au      -0.00000000      -4.28771689      -6.93767166       0.04309466       0.00000000       0.00783735       0.01268110
Au      -0.00000000       4.28771689      -6.93767166       0.04309466       0.00000000      -0.00783735       0.01268110
Au       6.93767166      -0.00000000      -4.28771689       0.04309466      -0.01268110       0.00000000       0.00783735
Au       6.93767166      -0.00000000       4.28771689       0.04309466      -0.01268110       0.00000000      -0.00783735
Au      -6.93767166      -0.00000000      -4.28771689       0.04309466       0.01268110       0.00000000       0.00783735
Au      -6.93767166      -0.00000000       4.28771689       0.04309466       0.01268110       0.00000000      -0.00783735
Au       1.43349200       7.03858279       0.00000000       0.01848361       0.00596713      -0.00432620      -0.00000000
Au       1.43349200      -7.03858279       0.00000000       0.01848361       0.00596713       0.00432620      -0.00000000
Au      -1.45829570      -5.25135970       4.67901078       0.01848361       0.00432043       0.00534391       0.00266441
Au       1.45829570      -5.25135970       4.67901078       0.01848361      -0.00432043       0.00534391       0.00266441
Au      -1.45829570       5.25135970       4.67901078       0.01848361       0.00432043      -0.00534391       0.00266441
Au       1.45829570       5.25135970       4.67901078       0.01848361      -0.00432043      -0.00534391       0.00266441
Au      -0.00000000       1.43349200       7.03858279       0.01848361       0.00000000       0.00596713      -0.00432620
Au      -1.45829570      -5.25135970      -4.67901078       0.01848361       0.00432043       0.00534391      -0.00266441
Au       1.45829570      -5.25135970      -4.67901078       0.01848361      -0.00432043       0.00534391      -0.00266441
Au      -1.45829570       5.25135970      -4.67901078       0.01848361       0.00432043      -0.00534391      -0.00266441
Au       1.45829570       5.25135970      -4.67901078       0.01848361      -0.00432043      -0.00534391      -0.00266441
Au      -0.00000000       1.43349200      -7.03858279       0.01848361       0.00000000       0.00596713       0.00432620
Au       6.13730648       2.35957200      -2.89178770       0.01848361      -0.00165602      -0.00699060      -0.00164669
Au       6.13730648      -2.35957200      -2.89178770       0.01848361      -0.00165602       0.00699060      -0.00164669
Au       4.67901078      -1.45829570      -5.25135970       0.01848361       0.00266441       0.00432043       0.00534391
Au       4.67901078       1.45829570      -5.25135970       0.01848361       0.00266441      -0.00432043       0.00534391
Au       6.13730648       2.35957200       2.89178770       0.01848361      -0.00165602      -0.00699060       0.00164669
Au       6.13730648      -2.35957200       2.89178770       0.01848361      -0.00165602       0.00699060       0.00164669
Au       4.67901078      -1.45829570       5.25135970       0.01848361       0.00266441       0.00432043      -0.00534391
Au       4.67901078       1.45829570       5.25135970       0.01848361       0.00266441      -0.00432043      -0.00534391
Au       7.03858279      -0.00000000       1.43349200       0.01848361      -0.00432620       0.00000000       0.00596713
Au      -6.13730648       2.35957200      -2.89178770       0.01848361       0.00165602      -0.00699060      -0.00164669
Au      -6.13730648      -2.35957200      -2.89178770       0.01848361       0.00165602       0.00699060      -0.00164669
Au      -4.67901078      -1.45829570      -5.25135970       0.01848361      -0.00266441       0.00432043       0.00534391
Au      -4.67901078       1.45829570      -5.25135970       0.01848361      -0.00266441      -0.00432043       0.00534391
Au      -6.13730648       2.35957200       2.89178770       0.01848361       0.00165602      -0.00699060       0.00164669
Au      -6.13730648      -2.35957200       2.89178770       0.01848361       0.00165602       0.00699060       0.00164669
Au      -4.67901078      -1.45829570       5.25135970       0.01848361      -0.00266441       0.00432043      -0.00534391
Au      -4.67901078       1.45829570       5.25135970       0.01848361      -0.00266441      -0.00432043      -0.00534391
Au      -7.03858279      -0.00000000       1.43349200       0.01848361       0.00432620       0.00000000       0.00596713
Au      -1.43349200       7.03858279       0.00000000       0.01848361      -0.00596713      -0.00432620      -0.00000000
Au      -1.43349200      -7.03858279       0.00000000       0.01848361      -0.00596713       0.00432620      -0.00000000
Au      -2.89178770      -6.13730648       2.35957200       0.01848361      -0.00164669       0.00165602      -0.00699060
Au       2.89178770      -6.13730648       2.35957200       0.01848361       0.00164669       0.00165602      -0.00699060
Au      -2.89178770       6.13730648       2.35957200       0.01848361      -0.00164669      -0.00165602      -0.00699060
Au       2.89178770       6.13730648       2.35957200       0.01848361       0.00164669      -0.00165602      -0.00699060
Au      -0.00000000      -1.43349200       7.03858279       0.01848361       0.00000000      -0.00596713      -0.00432620
Au      -2.89178770      -6.13730648      -2.35957200       0.01848361      -0.00164669       0.00165602       0.00699060
Au       2.89178770      -6.13730648      -2.35957200       0.01848361       0.00164669       0.00165602       0.00699060
Au      -2.89178770       6.13730648      -2.35957200       0.01848361      -0.00164669      -0.00165602       0.00699060
Au       2.89178770       6.13730648      -2.35957200       0.01848361       0.00164669      -0.00165602       0.00699060
Au      -0.00000000      -1.43349200      -7.03858279       0.01848361       0.00000000      -0.00596713       0.00432620
Au       5.25135970       4.67901078      -1.45829570       0.01848361      -0.00534391       0.00266441       0.00432043
Au       5.25135970      -4.67901078      -1.45829570       0.01848361      -0.00534391      -0.00266441       0.00432043
Au       2.35957200      -2.89178770      -6.13730648       0.01848361      -0.00699060      -0.00164669       0.00165602
Au       2.35957200       2.89178770      -6.13730648       0.01848361      -0.00699060       0.00164669       0.00165602
Au       5.25135970       4.67901078       1.45829570       0.01848361      -0.00534391       0.00266441      -0.00432043
Au       5.25135970      -4.67901078       1.45829570       0.01848361      -0.00534391      -0.00266441      -0.00432043
Au       2.35957200      -2.89178770       6.13730648       0.01848361      -0.00699060      -0.00164669      -0.00165602
Au       2.35957200       2.89178770       6.13730648       0.01848361      -0.00699060       0.00164669      -0.00165602
Au       7.03858279      -0.00000000      -1.43349200       0.01848361      -0.00432620       0.00000000      -0.00596713
Au      -5.25135970       4.67901078      -1.45829570       0.01848361       0.00534391       0.00266441       0.00432043
Au      -5.25135970      -4.67901078      -1.45829570       0.01848361       0.00534391      -0.00266441       0.00432043
Au      -2.35957200      -2.89178770      -6.13730648       0.01848361       0.00699060      -0.00164669       0.00165602
Au      -2.35957200       2.89178770      -6.13730648       0.01848361       0.00699060       0.00164669       0.00165602
Au      -5.25135970       4.67901078       1.45829570       0.01848361       0.00534391       0.00266441      -0.00432043
Au      -5.25135970      -4.67901078       1.45829570       0.01848361       0.00534391      -0.00266441      -0.00432043
Au      -2.35957200      -2.89178770       6.13730648       0.01848361       0.00699060      -0.00164669      -0.00165602
Au      -2.35957200       2.89178770       6.13730648       0.01848361       0.00699060       0.00164669      -0.00165602
Au      -7.03858279      -0.00000000      -1.43349200       0.01848361       0.00432620       0.00000000      -0.00596713
Au      -0.00000000       6.21003768      -2.37202332       0.00958546       0.00000000       0.00285965      -0.00109229
Au       3.83801436       3.83801436      -3.83801436       0.00958546       0.00176736       0.00176736      -0.00176736
Au       2.37202332      -0.00000000      -6.21003768       0.00958546       0.00109229       0.00000000      -0.00285965
Au      -2.37202332      -0.00000000      -6.21003768       0.00958546      -0.00109229       0.00000000      -0.00285965
Au      -3.83801436       3.83801436      -3.83801436       0.00958546      -0.00176736       0.00176736      -0.00176736
Au      -3.83801436       3.83801436       3.83801436       0.00958546      -0.00176736       0.00176736       0.00176736
Au      -0.00000000       6.21003768       2.37202332       0.00958546       0.00000000       0.00285965       0.00109229
Au       3.83801436       3.83801436       3.83801436       0.00958546       0.00176736       0.00176736       0.00176736
Au       6.21003768       2.37202332       0.00000000       0.00958546       0.00285965       0.00109229      -0.00000000
Au       6.21003768      -2.37202332       0.00000000       0.00958546       0.00285965      -0.00109229      -0.00000000
Au       3.83801436      -3.83801436      -3.83801436       0.00958546       0.00176736      -0.00176736      -0.00176736
Au      -0.00000000      -6.21003768      -2.37202332       0.00958546       0.00000000      -0.00285965      -0.00109229
Au      -3.83801436      -3.83801436      -3.83801436       0.00958546      -0.00176736      -0.00176736      -0.00176736
Au      -6.21003768      -2.37202332       0.00000000       0.00958546      -0.00285965      -0.00109229      -0.00000000
Au      -6.21003768       2.37202332       0.00000000       0.00958546      -0.00285965       0.00109229      -0.00000000
Au      -0.00000000      -6.21003768       2.37202332       0.00958546       0.00000000      -0.00285965       0.00109229
Au       3.83801436      -3.83801436       3.83801436       0.00958546       0.00176736      -0.00176736       0.00176736
Au       2.37202332      -0.00000000       6.21003768       0.00958546       0.00109229       0.00000000       0.00285965
Au      -2.37202332      -0.00000000       6.21003768       0.00958546      -0.00109229       0.00000000       0.00285965
Au      -3.83801436      -3.83801436       3.83801436       0.00958546      -0.00176736      -0.00176736       0.00176736
Au      -5.72697253       9.26643620      -0.00000000       0.02953469      -0.00887246       0.01435594       0.00000000
Au       5.72697253       9.26643620      -0.00000000       0.02953469       0.00887246       0.01435594       0.00000000
Au      -5.72697253      -9.26643620      -0.00000000       0.02953469      -0.00887246      -0.01435594       0.00000000
Au       5.72697253      -9.26643620      -0.00000000       0.02953469       0.00887246      -0.01435594       0.00000000
Au      -0.00000000      -5.72697253       9.26643620       0.02953469      -0.00000000      -0.00887246       0.01435594
Au       0.00000000       5.72697253       9.26643620       0.02953469      -0.00000000       0.00887246       0.01435594
Au       0.00000000      -5.72697253      -9.26643620       0.02953469      -0.00000000      -0.00887246      -0.01435594
Au       0.00000000       5.72697253      -9.26643620       0.02953469      -0.00000000       0.00887246      -0.01435594
Au       9.26643620       0.00000000      -5.72697253       0.02953469       0.01435594      -0.00000000      -0.00887246
Au       9.26643620       0.00000000       5.72697253       0.02953469       0.01435594      -0.00000000       0.00887246
Au      -9.26643620       0.00000000      -5.72697253       0.02953469      -0.01435594      -0.00000000      -0.00887246
Au      -9.26643620       0.00000000       5.72697253       0.02953469      -0.01435594      -0.00000000       0.00887246
Au       2.87589605       9.39018178      -0.00000000       0.01223492       0.00176407       0.00254283       0.00000000
Au       2.87589605      -9.39018178      -0.00000000       0.01223492       0.00176407      -0.00254283       0.00000000
Au      -1.46377772      -6.70811588       7.02173967       0.01223492       0.00009626      -0.00151207       0.00269858
Au       1.46377772      -6.70811588       7.02173967       0.01223492      -0.00009626      -0.00151207       0.00269858
Au      -1.46377772       6.70811588       7.02173967       0.01223492       0.00009626       0.00151207       0.00269858
Au       1.46377772       6.70811588       7.02173967       0.01223492      -0.00009626       0.00151207       0.00269858
Au       0.00000000       2.87589605       9.39018178       0.01223492      -0.00000000       0.00176407       0.00254283
Au      -1.46377772      -6.70811588      -7.02173967       0.01223492       0.00009626      -0.00151207      -0.00269858
Au       1.46377772      -6.70811588      -7.02173967       0.01223492      -0.00009626      -0.00151207      -0.00269858
Au      -1.46377772       6.70811588      -7.02173967       0.01223492       0.00009626       0.00151207      -0.00269858
Au       1.46377772       6.70811588      -7.02173967       0.01223492      -0.00009626       0.00151207      -0.00269858
Au       0.00000000       2.87589605      -9.39018178       0.01223492      -0.00000000       0.00176407      -0.00254283
Au       8.48551739       2.36844211      -4.33967377       0.01223492       0.00260232      -0.00015575      -0.00166781
Au       8.48551739      -2.36844211      -4.33967377       0.01223492       0.00260232       0.00015575      -0.00166781
Au       7.02173967      -1.46377772      -6.70811588       0.01223492       0.00269858       0.00009626      -0.00151207
Au       7.02173967       1.46377772      -6.70811588       0.01223492       0.00269858      -0.00009626      -0.00151207
Au       8.48551739       2.36844211       4.33967377       0.01223492       0.00260232      -0.00015575       0.00166781
Au       8.48551739      -2.36844211       4.33967377       0.01223492       0.00260232       0.00015575       0.00166781
Au       7.02173967      -1.46377772       6.70811588       0.01223492       0.00269858       0.00009626       0.00151207
Au       7.02173967       1.46377772       6.70811588       0.01223492       0.00269858      -0.00009626       0.00151207
Au       9.39018178       0.00000000       2.87589605       0.01223492       0.00254283      -0.00000000       0.00176407
Au      -8.48551739       2.36844211      -4.33967377       0.01223492      -0.00260232      -0.00015575      -0.00166781
Au      -8.48551739      -2.36844211      -4.33967377       0.01223492      -0.00260232       0.00015575      -0.00166781
Au      -7.02173967      -1.46377772      -6.70811588       0.01223492      -0.00269858       0.00009626      -0.00151207
Au      -7.02173967       1.46377772      -6.70811588       0.01223492      -0.00269858      -0.00009626      -0.00151207
Au      -8.48551739       2.36844211       4.33967377       0.01223492      -0.00260232      -0.00015575       0.00166781
Au      -8.48551739      -2.36844211       4.33967377       0.01223492      -0.00260232       0.00015575       0.00166781
Au      -7.02173967      -1.46377772       6.70811588       0.01223492      -0.00269858       0.00009626       0.00151207
Au      -7.02173967       1.46377772       6.70811588       0.01223492      -0.00269858      -0.00009626       0.00151207
Au      -9.39018178       0.00000000       2.87589605       0.01223492      -0.00254283      -0.00000000       0.00176407
Au      -0.00000000       9.42772098      -0.00000000       0.01148208       0.00000000      -0.00518060       0.00000000
Au      -0.00000000      -9.42772098      -0.00000000       0.01148208       0.00000000       0.00518060       0.00000000
Au      -2.91332600      -7.62718649       4.71386049       0.01148208       0.00160089       0.00419120      -0.00259030
Au       2.91332600      -7.62718649       4.71386049       0.01148208      -0.00160089       0.00419120      -0.00259030
Au      -2.91332600       7.62718649       4.71386049       0.01148208       0.00160089      -0.00419120      -0.00259030
Au       2.91332600       7.62718649       4.71386049       0.01148208      -0.00160089      -0.00419120      -0.00259030
Au       0.00000000      -0.00000000       9.42772098       0.01148208      -0.00000000       0.00000000      -0.00518060
Au      -2.91332600      -7.62718649      -4.71386049       0.01148208       0.00160089       0.00419120       0.00259030
Au       2.91332600      -7.62718649      -4.71386049       0.01148208      -0.00160089       0.00419120       0.00259030
Au      -2.91332600       7.62718649      -4.71386049       0.01148208       0.00160089      -0.00419120       0.00259030
Au       2.91332600       7.62718649      -4.71386049       0.01148208      -0.00160089      -0.00419120       0.00259030
Au       0.00000000      -0.00000000      -9.42772098       0.01148208      -0.00000000       0.00000000       0.00518060
Au       7.62718649       4.71386049      -2.91332600       0.01148208      -0.00419120      -0.00259030       0.00160089
Au       7.62718649      -4.71386049      -2.91332600       0.01148208      -0.00419120       0.00259030       0.00160089
Au       4.71386049      -2.91332600      -7.62718649       0.01148208      -0.00259030       0.00160089       0.00419120
Au       4.71386049       2.91332600      -7.62718649       0.01148208      -0.00259030      -0.00160089       0.00419120
Au       7.62718649       4.71386049       2.91332600       0.01148208      -0.00419120      -0.00259030      -0.00160089
Au       7.62718649      -4.71386049       2.91332600       0.01148208      -0.00419120       0.00259030      -0.00160089
Au       4.71386049      -2.91332600       7.62718649       0.01148208      -0.00259030       0.00160089      -0.00419120
Au       4.71386049       2.91332600       7.62718649       0.01148208      -0.00259030      -0.00160089      -0.00419120
Au       9.42772098       0.00000000       0.00000000       0.01148208      -0.00518060      -0.00000000      -0.00000000
Au      -7.62718649       4.71386049      -2.91332600       0.01148208       0.00419120      -0.00259030       0.00160089
Au      -7.62718649      -4.71386049      -2.91332600       0.01148208       0.00419120       0.00259030       0.00160089
Au      -4.71386049      -2.91332600      -7.62718649       0.01148208       0.00259030       0.00160089       0.00419120
Au      -4.71386049       2.91332600      -7.62718649       0.01148208       0.00259030      -0.00160089       0.00419120
Au      -7.62718649       4.71386049       2.91332600       0.01148208       0.00419120      -0.00259030      -0.00160089
Au      -7.62718649      -4.71386049       2.91332600       0.01148208       0.00419120       0.00259030      -0.00160089
Au      -4.71386049      -2.91332600       7.62718649       0.01148208       0.00259030       0.00160089      -0.00419120
Au      -4.71386049       2.91332600       7.62718649       0.01148208       0.00259030      -0.00160089      -0.00419120
Au      -9.42772098       0.00000000       0.00000000       0.01148208       0.00518060      -0.00000000      -0.00000000
Au      -2.87589605       9.39018178      -0.00000000       0.01223492      -0.00176407       0.00254283       0.00000000
Au      -2.87589605      -9.39018178      -0.00000000       0.01223492      -0.00176407      -0.00254283       0.00000000
Au      -4.33967377      -8.48551739       2.36844211       0.01223492      -0.00166781      -0.00260232      -0.00015575
Au       4.33967377      -8.48551739       2.36844211       0.01223492       0.00166781      -0.00260232      -0.00015575
Au      -4.33967377       8.48551739       2.36844211       0.01223492      -0.00166781       0.00260232      -0.00015575
Au       4.33967377       8.48551739       2.36844211       0.01223492       0.00166781       0.00260232      -0.00015575
Au       0.00000000      -2.87589605       9.39018178       0.01223492      -0.00000000      -0.00176407       0.00254283
Au      -4.33967377      -8.48551739      -2.36844211       0.01223492      -0.00166781      -0.00260232       0.00015575
Au       4.33967377      -8.48551739      -2.36844211       0.01223492       0.00166781      -0.00260232       0.00015575
Au      -4.33967377       8.48551739      -2.36844211       0.01223492      -0.00166781       0.00260232       0.00015575
Au       4.33967377       8.48551739      -2.36844211       0.01223492       0.00166781       0.00260232       0.00015575
Au       0.00000000      -2.87589605      -9.39018178       0.01223492      -0.00000000      -0.00176407      -0.00254283
Au       6.70811588       7.02173967      -1.46377772       0.01223492       0.00151207       0.00269858       0.00009626
Au       6.70811588      -7.02173967      -1.46377772       0.01223492       0.00151207      -0.00269858       0.00009626
Au       2.36844211      -4.33967377      -8.48551739       0.01223492      -0.00015575      -0.00166781      -0.00260232
Au       2.36844211       4.33967377      -8.48551739       0.01223492      -0.00015575       0.00166781      -0.00260232
Au       6.70811588       7.02173967       1.46377772       0.01223492       0.00151207       0.00269858      -0.00009626
Au       6.70811588      -7.02173967       1.46377772       0.01223492       0.00151207      -0.00269858      -0.00009626
Au       2.36844211      -4.33967377       8.48551739       0.01223492      -0.00015575      -0.00166781       0.00260232
Au       2.36844211       4.33967377       8.48551739       0.01223492      -0.00015575       0.00166781       0.00260232
Au       9.39018178       0.00000000      -2.87589605       0.01223492       0.00254283      -0.00000000      -0.00176407
Au      -6.70811588       7.02173967      -1.46377772       0.01223492      -0.00151207       0.00269858       0.00009626
Au      -6.70811588      -7.02173967      -1.46377772       0.01223492      -0.00151207      -0.00269858       0.00009626
Au      -2.36844211      -4.33967377      -8.48551739       0.01223492       0.00015575      -0.00166781      -0.00260232
Au      -2.36844211       4.33967377      -8.48551739       0.01223492       0.00015575       0.00166781      -0.00260232