561
Properties=species:S:1:pos:R:3:energies:R:1:forces:R:3 energy=83.50225192932666 free_energy=83.50225192932666 pbc="F F F"
Au      -0.00000000       0.00000000       0.00000000       0.37122340       0.00000000      -0.00000000      -0.00000000
Au      -1.42416711       2.30435080       0.00000000       0.08356239       0.01449268      -0.02344965      -0.00000000
Au       1.42416711       2.30435080       0.00000000       0.08356239      -0.01449268      -0.02344965      -0.00000000
Au      -1.42416711      -2.30435080       0.00000000       0.08356239       0.01449268       0.02344965      -0.00000000
Au       1.42416711      -2.30435080       0.00000000       0.08356239      -0.01449268       0.02344965      -0.00000000
Au      -0.00000000      -1.42416711       2.30435080       0.08356239       0.00000000       0.01449268      -0.02344965
Au      -0.00000000       1.42416711       2.30435080       0.08356239       0.00000000      -0.01449268      -0.02344965
Au      -0.00000000      -1.42416711      -2.30435080       0.08356239       0.00000000       0.01449268       0.02344965
Au      -0.00000000       1.42416711      -2.30435080       0.08356239       0.00000000      -0.01449268       0.02344965
Au       2.30435080       0.00000000      -1.42416711       0.08356239      -0.02344965      -0.00000000       0.01449268
Au       2.30435080       0.00000000       1.42416711       0.08356239      -0.02344965      -0.00000000      -0.01449268
Au      -2.30435080       0.00000000      -1.42416711       0.08356239       0.02344965      -0.00000000       0.01449268
Au      -2.30435080       0.00000000       1.42416711       0.08356239       0.02344965      -0.00000000      -0.01449268
Au      -2.85415054       4.61811258       0.00000000       0.05479929       0.00014911      -0.00024127      -0.00000000
Au       2.85415054       4.61811258       0.00000000       0.05479929      -0.00014911      -0.00024127      -0.00000000
Au      -2.85415054      -4.61811258       0.00000000       0.05479929       0.00014911       0.00024127      -0.00000000
Au       2.85415054      -4.61811258       0.00000000       0.05479929      -0.00014911       0.00024127      -0.00000000
Au      -0.00000000      -2.85415054       4.61811258       0.05479929       0.00000000       0.00014911      -0.00024127
Au      -0.00000000       2.85415054       4.61811258       0.05479929       0.00000000      -0.00014911      -0.00024127
Au      -0.00000000      -2.85415054      -4.61811258       0.05479929       0.00000000       0.00014911       0.00024127
Au      -0.00000000       2.85415054      -4.61811258       0.05479929       0.00000000      -0.00014911       0.00024127
Au       4.61811258       0.00000000      -2.85415054       0.05479929      -0.00024127      -0.00000000       0.00014911
Au       4.61811258       0.00000000       2.85415054       0.05479929      -0.00024127      -0.00000000      -0.00014911
Au      -4.61811258       0.00000000      -2.85415054       0.05479929       0.00024127      -0.00000000       0.00014911
Au      -4.61811258       0.00000000       2.85415054       0.05479929       0.00024127      -0.00000000      -0.00014911
Au       0.00000000       4.68954306       0.00000000       0.02385512      -0.00000000       0.00566802      -0.00000000
Au       0.00000000      -4.68954306       0.00000000       0.02385512      -0.00000000      -0.00566802      -0.00000000
Au      -1.44914850      -3.79392004       2.34477153       0.02385512      -0.00175151      -0.00458552       0.00283401
Au       1.44914850      -3.79392004       2.34477153       0.02385512       0.00175151      -0.00458552       0.00283401
Au      -1.44914850       3.79392004       2.34477153       0.02385512      -0.00175151       0.00458552       0.00283401
Au       1.44914850       3.79392004       2.34477153       0.02385512       0.00175151       0.00458552       0.00283401
Au      -0.00000000      -0.00000000       4.68954306       0.02385512       0.00000000       0.00000000       0.00566802
Au      -1.44914850      -3.79392004      -2.34477153       0.02385512      -0.00175151      -0.00458552      -0.00283401
Au       1.44914850      -3.79392004      -2.34477153       0.02385512       0.00175151      -0.00458552      -0.00283401
Au      -1.44914850       3.79392004      -2.34477153       0.02385512      -0.00175151       0.00458552      -0.00283401
Au       1.44914850       3.79392004      -2.34477153       0.02385512       0.00175151       0.00458552      -0.00283401
Au      -0.00000000      -0.00000000      -4.68954306       0.02385512       0.00000000       0.00000000      -0.00566802
Au       3.79392004       2.34477153      -1.44914850       0.02385512       0.00458552       0.00283401      -0.00175151
Au       3.79392004      -2.34477153      -1.44914850       0.02385512       0.00458552      -0.00283401      -0.00175151
Au       2.34477153      -1.44914850      -3.79392004       0.02385512       0.00283401      -0.00175151      -0.00458552
Au       2.34477153       1.44914850      -3.79392004       0.02385512       0.00283401       0.00175151      -0.00458552
Au       3.79392004       2.34477153       1.44914850       0.02385512       0.00458552       0.00283401       0.00175151
Au       3.79392004      -2.34477153       1.44914850       0.02385512       0.00458552      -0.00283401       0.00175151
Au       2.34477153      -1.44914850       3.79392004       0.02385512       0.00283401      -0.00175151       0.00458552
Au       2.34477153       1.44914850       3.79392004       0.02385512       0.00283401       0.00175151       0.00458552
Au       4.68954306       0.00000000      -0.00000000       0.02385512       0.00566802      -0.00000000       0.00000000
Au      -3.79392004       2.34477153      -1.44914850       0.02385512      -0.00458552       0.00283401      -0.00175151
Au      -3.79392004      -2.34477153      -1.44914850       0.02385512      -0.00458552      -0.00283401      -0.00175151
Au      -2.34477153      -1.44914850      -3.79392004       0.02385512      -0.00283401      -0.00175151      -0.00458552
Au      -2.34477153       1.44914850      -3.79392004       0.02385512      -0.00283401       0.00175151      -0.00458552
Au      -3.79392004       2.34477153       1.44914850       0.02385512      -0.00458552       0.00283401       0.00175151
Au      -3.79392004      -2.34477153       1.44914850       0.02385512      -0.00458552      -0.00283401       0.00175151
Au      -2.34477153      -1.44914850       3.79392004       0.02385512      -0.00283401      -0.00175151       0.00458552
Au      -2.34477153       1.44914850       3.79392004       0.02385512      -0.00283401       0.00175151       0.00458552
Au      -4.68954306       0.00000000      -0.00000000       0.02385512      -0.00566802      -0.00000000       0.00000000
Au      -4.29017616       6.94165085       0.00000000       0.03225045      -0.00571610       0.00924884      -0.00000000
Au       4.29017616       6.94165085       0.00000000       0.03225045       0.00571610       0.00924884      -0.00000000
Au      -4.29017616      -6.94165085       0.00000000       0.03225045      -0.00571610      -0.00924884      -0.00000000
Au       4.29017616      -6.94165085       0.00000000       0.03225045       0.00571610      -0.00924884      -0.00000000
Au      -0.00000000      -4.29017616       6.94165085       0.03225045       0.00000000      -0.00571610       0.00924884
Au       0.00000000       4.29017616       6.94165085       0.03225045       0.00000000       0.00571610       0.00924884
Au       0.00000000      -4.29017616      -6.94165085       0.03225045       0.00000000      -0.00571610      -0.00924884
Au      -0.00000000       4.29017616      -6.94165085       0.03225045       0.00000000       0.00571610      -0.00924884
Au       6.94165085       0.00000000      -4.29017616       0.03225045       0.00924884      -0.00000000      -0.00571610
Au       6.94165085       0.00000000       4.29017616       0.03225045       0.00924884      -0.00000000       0.00571610
Au      -6.94165085       0.00000000      -4.29017616       0.03225045      -0.00924884      -0.00000000      -0.00571610
Au      -6.94165085       0.00000000       4.29017616       0.03225045      -0.00924884      -0.00000000       0.00571610
Au       1.43672370       7.04981009       0.00000000       0.01264608       0.00110203       0.00149697      -0.00000000
Au       1.43672370      -7.04981009       0.00000000       0.01264608       0.00110203      -0.00149697      -0.00000000
Au      -1.46014928      -5.25944413       4.68723893       0.01264608       0.00008842      -0.00087053       0.00164004
Au       1.46014928      -5.25944413       4.68723893       0.01264608      -0.00008842      -0.00087053       0.00164004
Au      -1.46014928       5.25944413       4.68723893       0.01264608       0.00008842       0.00087053       0.00164004
Au       1.46014928       5.25944413       4.68723893       0.01264608      -0.00008842       0.00087053       0.00164004
Au      -0.00000000       1.43672370       7.04981009       0.01264608       0.00000000       0.00110203       0.00149697
Au      -1.46014928      -5.25944413      -4.68723893       0.01264608       0.00008842      -0.00087053      -0.00164004
Au       1.46014928      -5.25944413      -4.68723893       0.01264608      -0.00008842      -0.00087053      -0.00164004
Au      -1.46014928       5.25944413      -4.68723893       0.01264608       0.00008842       0.00087053      -0.00164004
Au       1.46014928       5.25944413      -4.68723893       0.01264608      -0.00008842       0.00087053      -0.00164004
Au      -0.00000000       1.43672370      -7.04981009       0.01264608       0.00000000       0.00110203      -0.00149697
Au       6.14738821       2.36257116      -2.89687297       0.01264608       0.00155162      -0.00014307      -0.00101360
Au       6.14738821      -2.36257116      -2.89687297       0.01264608       0.00155162       0.00014307      -0.00101360
Au       4.68723893      -1.46014928      -5.25944413       0.01264608       0.00164004       0.00008842      -0.00087053
Au       4.68723893       1.46014928      -5.25944413       0.01264608       0.00164004      -0.00008842      -0.00087053
Au       6.14738821       2.36257116       2.89687297       0.01264608       0.00155162      -0.00014307       0.00101360
Au       6.14738821      -2.36257116       2.89687297       0.01264608       0.00155162       0.00014307       0.00101360
Au       4.68723893      -1.46014928       5.25944413       0.01264608       0.00164004       0.00008842       0.00087053
Au       4.68723893       1.46014928       5.25944413       0.01264608       0.00164004      -0.00008842       0.00087053
Au       7.04981009       0.00000000       1.43672370       0.01264608       0.00149697      -0.00000000       0.00110203
Au      -6.14738821       2.36257116      -2.89687297       0.01264608      -0.00155162      -0.00014307      -0.00101360
Au      -6.14738821      -2.36257116      -2.89687297       0.01264608      -0.00155162       0.00014307      -0.00101360
Au      -4.68723893      -1.46014928      -5.25944413       0.01264608      -0.00164004       0.00008842      -0.00087053
Au      -4.68723893       1.46014928      -5.25944413       0.01264608      -0.00164004      -0.00008842      -0.00087053
Au      -6.14738821       2.36257116       2.89687297       0.01264608      -0.00155162      -0.00014307       0.00101360
Au      -6.14738821      -2.36257116       2.89687297       0.01264608      -0.00155162       0.00014307       0.00101360
Au      -4.68723893      -1.46014928       5.25944413       0.01264608      -0.00164004       0.00008842       0.00087053
Au      -4.68723893       1.46014928       5.25944413       0.01264608      -0.00164004      -0.00008842       0.00087053
Au      -7.04981009       0.00000000       1.43672370       0.01264608      -0.00149697      -0.00000000       0.00110203
Au      -1.43672370       7.04981009       0.00000000       0.01264608      -0.00110203       0.00149697      -0.00000000
Au      -1.43672370      -7.04981009       0.00000000       0.01264608      -0.00110203      -0.00149697      -0.00000000
Au      -2.89687297      -6.14738821       2.36257116       0.01264608      -0.00101360      -0.00155162      -0.00014307
Au       2.89687297      -6.14738821       2.36257116       0.01264608       0.00101360      -0.00155162      -0.00014307
Au      -2.89687297       6.14738821       2.36257116       0.01264608      -0.00101360       0.00155162      -0.00014307
Au       2.89687297       6.14738821       2.36257116       0.01264608       0.00101360       0.00155162      -0.00014307
Au      -0.00000000      -1.43672370       7.04981009       0.01264608       0.00000000      -0.00110203       0.00149697
Au      -2.89687297      -6.14738821      -2.36257116       0.01264608      -0.00101360      -0.00155162       0.00014307
Au       2.89687297      -6.14738821      -2.36257116       0.01264608       0.00101360      -0.00155162       0.00014307
Au      -2.89687297       6.14738821      -2.36257116       0.01264608      -0.00101360       0.00155162       0.00014307
Au       2.89687297       6.14738821      -2.36257116       0.01264608       0.00101360       0.00155162       0.00014307
Au      -0.00000000      -1.43672370      -7.04981009       0.01264608       0.00000000      -0.00110203      -0.00149697
Au       5.25944413       4.68723893      -1.46014928       0.01264608       0.00087053       0.00164004       0.00008842
Au       5.25944413      -4.68723893      -1.46014928       0.01264608       0.00087053      -0.00164004       0.00008842
Au       2.36257116      -2.89687297      -6.14738821       0.01264608      -0.00014307      -0.00101360      -0.00155162
Au       2.36257116       2.89687297      -6.14738821       0.01264608      -0.00014307       0.00101360      -0.00155162
Au       5.25944413       4.68723893       1.46014928       0.01264608       0.00087053       0.00164004      -0.00008842
Au       5.25944413      -4.68723893       1.46014928       0.01264608       0.00087053      -0.00164004      -0.00008842
Au       2.36257116      -2.89687297       6.14738821       0.01264608      -0.00014307      -0.00101360       0.00155162
Au       2.36257116       2.89687297       6.14738821       0.01264608      -0.00014307       0.00101360       0.00155162
Au       7.04981009       0.00000000      -1.43672370       0.01264608       0.00149697      -0.00000000      -0.00110203
Au      -5.25944413       4.68723893      -1.46014928       0.01264608      -0.00087053       0.00164004       0.00008842
Au      -5.25944413      -4.68723893      -1.46014928       0.01264608      -0.00087053      -0.00164004       0.00008842
Au      -2.36257116      -2.89687297      -6.14738821       0.01264608       0.00014307      -0.00101360      -0.00155162
Au      -2.36257116       2.89687297      -6.14738821       0.01264608       0.00014307       0.00101360      -0.00155162
Au      -5.25944413       4.68723893       1.46014928       0.01264608      -0.00087053       0.00164004      -0.00008842
Au      -5.25944413      -4.68723893       1.46014928       0.01264608      -0.00087053      -0.00164004      -0.00008842
Au      -2.36257116      -2.89687297       6.14738821       0.01264608       0.00014307      -0.00101360       0.00155162
Au      -2.36257116       2.89687297       6.14738821       0.01264608       0.00014307       0.00101360       0.00155162
Au      -7.04981009       0.00000000      -1.43672370       0.01264608      -0.00149697      -0.00000000      -0.00110203
Au      -0.00000000       6.22853977      -2.37909049       0.00370310       0.00000000       0.00233784      -0.00089298
Au       3.84944928       3.84944928      -3.84944928       0.00370310       0.00144487       0.00144487      -0.00144487
Au       2.37909049       0.00000000      -6.22853977       0.00370310       0.00089298      -0.00000000      -0.00233784
Au      -2.37909049       0.00000000      -6.22853977       0.00370310      -0.00089298      -0.00000000      -0.00233784
Au      -3.84944928       3.84944928      -3.84944928       0.00370310      -0.00144487       0.00144487      -0.00144487
Au      -3.84944928       3.84944928       3.84944928       0.00370310      -0.00144487       0.00144487       0.00144487
Au      -0.00000000       6.22853977       2.37909049       0.00370310       0.00000000       0.00233784       0.00089298
Au       3.84944928       3.84944928       3.84944928       0.00370310       0.00144487       0.00144487       0.00144487
Au       6.22853977       2.37909049       0.00000000       0.00370310       0.00233784       0.00089298      -0.00000000
Au       6.22853977      -2.37909049       0.00000000       0.00370310       0.00233784      -0.00089298      -0.00000000
Au       3.84944928      -3.84944928      -3.84944928       0.00370310       0.00144487      -0.00144487      -0.00144487
Au       0.00000000      -6.22853977      -2.37909049       0.00370310       0.00000000      -0.00233784      -0.00089298
Au      -3.84944928      -3.84944928      -3.84944928       0.00370310      -0.00144487      -0.00144487      -0.00144487
Au      -6.22853977      -2.37909049       0.00000000       0.00370310      -0.00233784      -0.00089298      -0.00000000
Au      -6.22853977       2.37909049       0.00000000       0.00370310      -0.00233784       0.00089298      -0.00000000
Au       0.00000000      -6.22853977       2.37909049       0.00370310       0.00000000      -0.00233784       0.00089298
Au       3.84944928      -3.84944928       3.84944928       0.00370310       0.00144487      -0.00144487       0.00144487
Au       2.37909049       0.00000000       6.22853977       0.00370310       0.00089298      -0.00000000       0.00233784
Au      -2.37909049       0.00000000       6.22853977       0.00370310      -0.00089298      -0.00000000       0.00233784
Au      -3.84944928      -3.84944928       3.84944928       0.00370310      -0.00144487      -0.00144487       0.00144487
Au      -5.73986861       9.28730250       0.00000000       0.10085971       0.00037308      -0.00060365      -0.00000000
Au       5.73986861       9.28730250       0.00000000       0.10085971      -0.00037308      -0.00060365      -0.00000000
Au      -5.73986861      -9.28730250      -0.00000000       0.10085971       0.00037308       0.00060365       0.00000000
Au       5.73986861      -9.28730250      -0.00000000       0.10085971      -0.00037308       0.00060365      -0.00000000
Au      -0.00000000      -5.73986861       9.28730250       0.10085971       0.00000000       0.00037308      -0.00060365
Au       0.00000000       5.73986861       9.28730250       0.10085971       0.00000000      -0.00037308      -0.00060365
Au       0.00000000      -5.73986861      -9.28730250       0.10085971      -0.00000000       0.00037308       0.00060365
Au      -0.00000000       5.73986861      -9.28730250       0.10085971       0.00000000      -0.00037308       0.00060365
Au       9.28730250       0.00000000      -5.73986861       0.10085971      -0.00060365       0.00000000       0.00037308
Au       9.28730250      -0.00000000       5.73986861       0.10085971      -0.00060365      -0.00000000      -0.00037308
Au      -9.28730250       0.00000000      -5.73986861       0.10085971       0.00060365      -0.00000000       0.00037308
Au      -9.28730250       0.00000000       5.73986861       0.10085971       0.00060365      -0.00000000      -0.00037308
Au       2.88287035       9.42104186      -0.00000000       0.03761373       0.00334369       0.00320078       0.00000000
Au       2.88287035      -9.42104186      -0.00000000       0.03761373       0.00334369      -0.00320078       0.00000000
Au      -1.46982686      -6.73092703       7.04281203       0.03761373       0.00068275      -0.00155622       0.00430549
Au       1.46982686      -6.73092703       7.04281203       0.03761373      -0.00068275      -0.00155622       0.00430549
Au      -1.46982686       6.73092703       7.04281203       0.03761373       0.00068275       0.00155622       0.00430549
Au       1.46982686       6.73092703       7.04281203       0.03761373      -0.00068275       0.00155622       0.00430549
Au      -0.00000000       2.88287035       9.42104186       0.03761373      -0.00000000       0.00334369       0.00320078
Au      -1.46982686      -6.73092703      -7.04281203       0.03761373       0.00068275      -0.00155622      -0.00430549
Au       1.46982686      -6.73092703      -7.04281203       0.03761373      -0.00068275      -0.00155622      -0.00430549
Au      -1.46982686       6.73092703      -7.04281203       0.03761373       0.00068275       0.00155622      -0.00430549
Au       1.46982686       6.73092703      -7.04281203       0.03761373      -0.00068275       0.00155622      -0.00430549
Au      -0.00000000       2.88287035      -9.42104186       0.03761373       0.00000000       0.00334369      -0.00320078
Au       8.51263890       2.37822982      -4.35269721       0.03761373       0.00362274      -0.00110472      -0.00266094
Au       8.51263890      -2.37822982      -4.35269721       0.03761373       0.00362274       0.00110472      -0.00266094
Au       7.04281203      -1.46982686      -6.73092703       0.03761373       0.00430549       0.00068275      -0.00155622
Au       7.04281203       1.46982686      -6.73092703       0.03761373       0.00430549      -0.00068275      -0.00155622
Au       8.51263890       2.37822982       4.35269721       0.03761373       0.00362274      -0.00110472       0.00266094
Au       8.51263890      -2.37822982       4.35269721       0.03761373       0.00362274       0.00110472       0.00266094
Au       7.04281203      -1.46982686       6.73092703       0.03761373       0.00430549       0.00068275       0.00155622
Au       7.04281203       1.46982686       6.73092703       0.03761373       0.00430549      -0.00068275       0.00155622
Au       9.42104186      -0.00000000       2.88287035       0.03761373       0.00320078       0.00000000       0.00334369
Au      -8.51263890       2.37822982      -4.35269721       0.03761373      -0.00362274      -0.00110472      -0.00266094
Au      -8.51263890      -2.37822982      -4.35269721       0.03761373      -0.00362274       0.00110472      -0.00266094
Au      -7.04281203      -1.46982686      -6.73092703       0.03761373      -0.00430549       0.00068275      -0.00155622
Au      -7.04281203       1.46982686      -6.73092703       0.03761373      -0.00430549      -0.00068275      -0.00155622
Au      -8.51263890       2.37822982       4.35269721       0.03761373      -0.00362274      -0.00110472       0.00266094
Au      -8.51263890      -2.37822982       4.35269721       0.03761373      -0.00362274       0.00110472       0.00266094
Au      -7.04281203      -1.46982686       6.73092703       0.03761373      -0.00430549       0.00068275       0.00155622
Au      -7.04281203       1.46982686       6.73092703       0.03761373      -0.00430549      -0.00068275       0.00155622
Au      -9.42104186       0.00000000       2.88287035       0.03761373      -0.00320078       0.00000000       0.00334369
Au       0.00000000       9.45418806      -0.00000000       0.04416292      -0.00000000      -0.00344726       0.00000000
Au       0.00000000      -9.45418806      -0.00000000       0.04416292      -0.00000000       0.00344726       0.00000000
Au      -2.92150478      -7.64859881       4.72709403       0.04416292       0.00106526       0.00278889      -0.00172363
Au       2.92150478      -7.64859881       4.72709403       0.04416292      -0.00106526       0.00278889      -0.00172363
Au      -2.92150478       7.64859881       4.72709403       0.04416292       0.00106526      -0.00278889      -0.00172363
Au       2.92150478       7.64859881       4.72709403       0.04416292      -0.00106526      -0.00278889      -0.00172363
Au       0.00000000       0.00000000       9.45418806       0.04416292      -0.00000000      -0.00000000      -0.00344726
Au      -2.92150478      -7.64859881      -4.72709403       0.04416292       0.00106526       0.00278889       0.00172363
Au       2.92150478      -7.64859881      -4.72709403       0.04416292      -0.00106526       0.00278889       0.00172363
Au      -2.92150478       7.64859881      -4.72709403       0.04416292       0.00106526      -0.00278889       0.00172363
Au       2.92150478       7.64859881      -4.72709403       0.04416292      -0.00106526      -0.00278889       0.00172363
Au      -0.00000000       0.00000000      -9.45418806       0.04416292       0.00000000      -0.00000000       0.00344726
Au       7.64859881       4.72709403      -2.92150478       0.04416292      -0.00278889      -0.00172363       0.00106526
Au       7.64859881      -4.72709403      -2.92150478       0.04416292      -0.00278889       0.00172363       0.00106526
Au       4.72709403      -2.92150478      -7.64859881       0.04416292      -0.00172363       0.00106526       0.00278889
Au       4.72709403       2.92150478      -7.64859881       0.04416292      -0.00172363      -0.00106526       0.00278889
Au       7.64859881       4.72709403       2.92150478       0.04416292      -0.00278889      -0.00172363      -0.00106526
Au       7.64859881      -4.72709403       2.92150478       0.04416292      -0.00278889       0.00172363      -0.00106526
Au       4.72709403      -2.92150478       7.64859881       0.04416292      -0.00172363       0.00106526      -0.00278889
Au       4.72709403       2.92150478       7.64859881       0.04416292      -0.00172363      -0.00106526      -0.00278889
Au       9.45418806      -0.00000000       0.00000000       0.04416292      -0.00344726       0.00000000      -0.00000000
Au      -7.64859881       4.72709403      -2.92150478       0.04416292       0.00278889      -0.00172363       0.00106526
Au      -7.64859881      -4.72709403      -2.92150478       0.04416292       0.00278889       0.00172363       0.00106526
Au      -4.72709403      -2.92150478      -7.64859881       0.04416292       0.00172363       0.00106526       0.00278889
Au      -4.72709403       2.92150478      -7.64859881       0.04416292       0.00172363      -0.00106526       0.00278889
Au      -7.64859881       4.72709403       2.92150478       0.04416292       0.00278889      -0.00172363      -0.00106526
Au      -7.64859881      -4.72709403       2.92150478       0.04416292       0.00278889       0.00172363      -0.00106526
Au      -4.72709403      -2.92150478       7.64859881       0.04416292       0.00172363       0.00106526      -0.00278889
Au      -4.72709403       2.92150478       7.64859881       0.04416292       0.00172363      -0.00106526      -0.00278889
Au      -9.45418806       0.00000000       0.00000000       0.04416292       0.00344726       0.00000000      -0.00000000
Au      -2.88287035       9.42104186      -0.00000000       0.03761373      -0.00334369       0.00320078       0.00000000
Au      -2.88287035      -9.42104186      -0.00000000       0.03761373      -0.00334369      -0.00320078       0.00000000
Au      -4.35269721      -8.51263890       2.37822982       0.03761373      -0.00266094      -0.00362274      -0.00110472
Au       4.35269721      -8.51263890       2.37822982       0.03761373       0.00266094      -0.00362274      -0.00110472
Au      -4.35269721       8.51263890       2.37822982       0.03761373      -0.00266094       0.00362274      -0.00110472
Au       4.35269721       8.51263890       2.37822982       0.03761373       0.00266094       0.00362274      -0.00110472
Au      -0.00000000      -2.88287035       9.42104186       0.03761373      -0.00000000      -0.00334369       0.00320078
Au      -4.35269721      -8.51263890      -2.37822982       0.03761373      -0.00266094      -0.00362274       0.00110472
Au       4.35269721      -8.51263890      -2.37822982       0.03761373       0.00266094      -0.00362274       0.00110472
Au      -4.35269721       8.51263890      -2.37822982       0.03761373      -0.00266094       0.00362274       0.00110472
Au       4.35269721       8.51263890      -2.37822982       0.03761373       0.00266094       0.00362274       0.00110472
Au       0.00000000      -2.88287035      -9.42104186       0.03761373      -0.00000000      -0.00334369      -0.00320078
Au       6.73092703       7.04281203      -1.46982686       0.03761373       0.00155622       0.00430549       0.00068275
Au       6.73092703      -7.04281203      -1.46982686       0.03761373       0.00155622      -0.00430549       0.00068275
Au       2.37822982      -4.35269721      -8.51263890       0.03761373      -0.00110472      -0.00266094      -0.00362274
Au       2.37822982       4.35269721      -8.51263890       0.03761373      -0.00110472       0.00266094      -0.00362274
Au       6.73092703       7.04281203       1.46982686       0.03761373       0.00155622       0.00430549      -0.00068275
Au       6.73092703      -7.04281203       1.46982686       0.03761373       0.00155622      -0.00430549      -0.00068275
Au       2.37822982      -4.35269721       8.51263890       0.03761373      -0.00110472      -0.00266094       0.00362274
Au       2.37822982       4.35269721       8.51263890       0.03761373      -0.00110472       0.00266094       0.00362274
Au       9.42104186       0.00000000      -2.88287035       0.03761373       0.00320078       0.00000000      -0.00334369
Au      -6.73092703       7.04281203      -1.46982686       0.03761373      -0.00155622       0.00430549       0.00068275
Au      -6.73092703      -7.04281203      -1.46982686       0.03761373      -0.00155622      -0.00430549       0.00068275
Au      -2.37822982      -4.35269721      -8.51263890       0.03761373       0.00110472      -0.00266094      -0.00362274
Au      -2.37822982       4.35269721      -8.51263890       0.03761373       0.00110472       0.00266094      -0.00362274