287
Properties=species:S:1:pos:R:3:energies:R:1:forces:R:3 energy=54.09283579981693 free_energy=54.09283579981693 pbc="F F F"
Au     -11.54575998      -8.38848564      -0.00000000       0.68924314       0.00715904       0.00520135       0.00000000
Au     -11.61295788      -5.69187573       0.00000000       0.46318233      -0.00265143      -0.00189854      -0.00000000
Au     -11.60317686      -2.83956237       0.00000000       0.46825771       0.00230717      -0.00892145       0.00000000
Au     -11.60082875       0.00000000       0.00000000       0.46618203      -0.00388512      -0.00000000       0.00000000
Au     -11.60317686       2.83956237       0.00000000       0.46825771       0.00230717       0.00892145       0.00000000
Au     -11.61295788       5.69187573      -0.00000000       0.46318233      -0.00265143       0.00189854       0.00000000
Au     -11.54575998       8.38848564      -0.00000000       0.68924314       0.00715904      -0.00520135      -0.00000000
Au      -9.78295849      -7.10773539      -1.48333946       0.32099266      -0.00210146      -0.00152680      -0.00305924
Au      -9.78295849      -7.10773539       1.48333946       0.32099266      -0.00210146      -0.00152680       0.00305924
Au      -9.82964098       1.42654542      -1.49346537       0.22884475       0.00355715       0.00311267       0.00598464
Au      -9.82964098       1.42654542       1.49346537       0.22884475       0.00355715       0.00311267      -0.00598464
Au      -9.78295849       7.10773539      -1.48333946       0.32099266      -0.00210146       0.00152680      -0.00305924
Au      -9.78295849       7.10773539       1.48333946       0.32099266      -0.00210146       0.00152680       0.00305924
Au      -9.82597108      -4.27904345      -1.48527286       0.22711320       0.01019283      -0.00335713       0.00228017
Au      -9.82597108      -4.27904345       1.48527286       0.22711320       0.01019283      -0.00335713      -0.00228017
Au      -9.82964098      -1.42654542      -1.49346537       0.22884475       0.00355715      -0.00311267       0.00598464
Au      -9.82964098      -1.42654542       1.49346537       0.22884475       0.00355715      -0.00311267      -0.00598464
Au      -9.82597108       4.27904345      -1.48527286       0.22711320       0.01019283       0.00335713       0.00228017
Au      -9.82597108       4.27904345       1.48527286       0.22711320       0.01019283       0.00335713      -0.00228017
Au      -9.00189684      -9.28569293       0.00000000       0.46318233      -0.00262495      -0.00193498      -0.00000000
Au      -9.00189684       9.28569293       0.00000000       0.46318233      -0.00262495       0.00193498      -0.00000000
Au      -7.82359282      -5.68417290      -2.86394066       0.29486276       0.00425961       0.00309479      -0.01676950
Au      -7.89200661      -5.73387843       0.00000000       0.01210153       0.00023846       0.00017325       0.00000000
Au      -7.82359282      -5.68417290       2.86394066       0.29486276       0.00425961       0.00309479       0.01676950
Au      -7.86645454       2.86492451      -2.91294079       0.21507629       0.00158348      -0.01174692       0.00286201
Au      -7.92616823       2.86369374       0.00000000       0.00453982      -0.00383902      -0.00701177      -0.00000000
Au      -7.86645454       2.86492451       2.91294079       0.21507629       0.00158348      -0.01174692      -0.00286201
Au      -7.82359282       5.68417290      -2.86394066       0.29486276       0.00425961      -0.00309479      -0.01676950
Au      -7.89200661       5.73387843       0.00000000       0.01210153       0.00023846      -0.00017325      -0.00000000
Au      -7.82359282       5.68417290       2.86394066       0.29486276       0.00425961      -0.00309479       0.01676950
Au      -7.86645454      -2.86492451      -2.91294079       0.21507629       0.00158348       0.01174692       0.00286201
Au      -7.92616823      -2.86369374      -0.00000000       0.00453982      -0.00383902       0.00701177       0.00000000
Au      -7.86645454      -2.86492451       2.91294079       0.21507629       0.00158348       0.01174692      -0.00286201
Au      -7.86862609      -0.00000000      -2.91744347       0.21564834      -0.00352248       0.00000000       0.00761056
Au      -7.93332110       0.00000000       0.00000000       0.00662596       0.00089523      -0.00000000      -0.00000000
Au      -7.86862609       0.00000000       2.91744347       0.21564834      -0.00352248       0.00000000      -0.00761056
Au      -7.10600420      -8.02275668      -1.48527286       0.22711320      -0.00004306       0.01073137       0.00228017
Au      -7.10600420      -8.02275668       1.48527286       0.22711320      -0.00004306       0.01073137      -0.00228017
Au      -7.10600420       8.02275668      -1.48527286       0.22711320      -0.00004306      -0.01073137       0.00228017
Au      -7.10600420       8.02275668       1.48527286       0.22711320      -0.00004306      -0.01073137      -0.00228017
Au      -6.28616313     -10.15780393      -0.00000000       0.46825771      -0.00777184       0.00495113       0.00000000
Au      -6.28616313      10.15780393       0.00000000       0.46825771      -0.00777184      -0.00495113       0.00000000
Au      -5.87567970      -4.26893118      -4.29048596       0.29471715       0.00326629       0.00237310      -0.00253498
Au      -5.91289698      -4.29597112      -1.45268319       0.01521221      -0.00634498      -0.00460990      -0.00646711
Au      -5.91289698      -4.29597112       1.45268319       0.01521221      -0.00634498      -0.00460990       0.00646711
Au      -5.87567970      -4.26893118       4.29048596       0.29471715       0.00326629       0.00237310       0.00253498
Au      -5.91403272      -1.43751642      -4.34540767       0.21430873      -0.00757067       0.00882968       0.00122540
Au      -5.94794803      -1.43308535      -1.46547983       0.00590011       0.00140800       0.00951120       0.00250121
Au      -5.94794803      -1.43308535       1.46547983       0.00590011       0.00140800       0.00951120      -0.00250121
Au      -5.91403272      -1.43751642       4.34540767       0.21430873      -0.00757067       0.00882968      -0.00122540
Au      -5.91403272       1.43751642      -4.34540767       0.21430873      -0.00757067      -0.00882968       0.00122540
Au      -5.94794803       1.43308535      -1.46547983       0.00590011       0.00140800      -0.00951120       0.00250121
Au      -5.94794803       1.43308535       1.46547983       0.00590011       0.00140800      -0.00951120      -0.00250121
Au      -5.91403272       1.43751642       4.34540767       0.21430873      -0.00757067      -0.00882968      -0.00122540
Au      -5.87567970       4.26893118      -4.29048596       0.29471715       0.00326629      -0.00237310      -0.00253498
Au      -5.91289698       4.29597112      -1.45268319       0.01521221      -0.00634498       0.00460990      -0.00646711
Au      -5.91289698       4.29597112       1.45268319       0.01521221      -0.00634498       0.00460990       0.00646711
Au      -5.87567970       4.26893118       4.29048596       0.29471715       0.00326629      -0.00237310       0.00253498
Au      -5.15557326      -6.59613249      -2.91294079       0.21507629       0.01166131      -0.00212402       0.00286201
Au      -5.17285527      -6.65330391       0.00000000       0.00453982       0.00548227      -0.00581788       0.00000000
Au      -5.15557326      -6.59613249       2.91294079       0.21507629       0.01166131      -0.00212402      -0.00286201
Au      -5.15557326       6.59613249      -2.91294079       0.21507629       0.01166131       0.00212402       0.00286201
Au      -5.17285527       6.65330391       0.00000000       0.00453982       0.00548227       0.00581788      -0.00000000
Au      -5.15557326       6.59613249       2.91294079       0.21507629       0.01166131       0.00212402      -0.00286201
Au      -4.39425143       8.90771733      -1.49346537       0.22884475      -0.00186110      -0.00434492       0.00598464
Au      -4.39425143       8.90771733       1.49346537       0.22884475      -0.00186110      -0.00434492      -0.00598464
Au      -4.39425143      -8.90771733      -1.49346537       0.22884475      -0.00186110       0.00434492       0.00598464
Au      -4.39425143      -8.90771733       1.49346537       0.22884475      -0.00186110       0.00434492      -0.00598464
Au      -3.91468108      -2.84418229      -5.72169639       0.29605253      -0.00374050      -0.00271763       0.00212887
Au      -3.94705723      -2.86770494      -2.90482077       0.01875699       0.00015146       0.00011004       0.00110884
Au      -3.93711372      -2.86048055       0.00000000       0.00183985      -0.01661457      -0.01207120       0.00000000
Au      -3.94705723      -2.86770494       2.90482077       0.01875699       0.00015146       0.00011004      -0.00110884
Au      -3.91468108      -2.84418229       5.72169639       0.29605253      -0.00374050      -0.00271763      -0.00212887
Au      -3.91468108       2.84418229      -5.72169639       0.29605253      -0.00374050       0.00271763       0.00212887
Au      -3.94705723       2.86770494      -2.90482077       0.01875699       0.00015146      -0.00011004       0.00110884
Au      -3.93711372       2.86048055      -0.00000000       0.00183985      -0.01661457       0.01207120       0.00000000
Au      -3.94705723       2.86770494       2.90482077       0.01875699       0.00015146      -0.00011004      -0.00110884
Au      -3.91468108       2.84418229       5.72169639       0.29605253      -0.00374050       0.00271763      -0.00212887
Au      -3.95376085      -0.00000000      -5.78093207       0.21422295       0.00249703       0.00000000       0.00832999
Au      -3.97253416      -0.00000000      -2.91979344       0.00523092      -0.00826109       0.00000000       0.00939082
Au      -3.96165313      -0.00000000       0.00000000       0.00140284      -0.01133353       0.00000000      -0.00000000
Au      -3.97253416      -0.00000000       2.91979344       0.00523092      -0.00826109       0.00000000      -0.00939082
Au      -3.95376085      -0.00000000       5.78093207       0.21422295       0.00249703       0.00000000      -0.00832999
Au      -3.58485323     -11.03304378       0.00000000       0.46618203      -0.00120057      -0.00369497       0.00000000
Au      -3.58485323      11.03304378      -0.00000000       0.46618203      -0.00120057       0.00369497      -0.00000000
Au      -3.19469598      -5.18036235      -4.34540767       0.21430873       0.00605805      -0.00992866       0.00122540
Au      -3.20096218      -5.21398701      -1.46547983       0.00590011       0.00948078      -0.00160004       0.00250121
Au      -3.20096218      -5.21398701       1.46547983       0.00590011       0.00948078      -0.00160004      -0.00250121
Au      -3.19469598      -5.18036235       4.34540767       0.21430873       0.00605805      -0.00992866      -0.00122540
Au      -3.19469598       5.18036235      -4.34540767       0.21430873       0.00605805       0.00992866       0.00122540
Au      -3.20096218       5.21398701      -1.46547983       0.00590011       0.00948078       0.00160004       0.00250121
Au      -3.20096218       5.21398701       1.46547983       0.00590011       0.00948078       0.00160004      -0.00250121
Au      -3.19469598       5.18036235       4.34540767       0.21430873       0.00605805       0.00992866      -0.00122540
Au      -2.43153918      -7.48350812      -2.91744347       0.21564834      -0.00108851      -0.00335008       0.00761056
Au      -2.45153104      -7.54503673       0.00000000       0.00662596       0.00027664       0.00085141      -0.00000000
Au      -2.43153918      -7.48350812       2.91744347       0.21564834      -0.00108851      -0.00335008      -0.00761056
Au      -2.43153918       7.48350812      -2.91744347       0.21564834      -0.00108851       0.00335008       0.00761056
Au      -2.45153104       7.54503673      -0.00000000       0.00662596       0.00027664      -0.00085141       0.00000000
Au      -2.43153918       7.48350812       2.91744347       0.21564834      -0.00108851       0.00335008      -0.00761056
Au      -1.94856857      -1.41571794      -7.15569072       0.29409838      -0.01329434      -0.00965891      -0.00297047
Au      -1.98255620      -1.44041140      -4.35216934       0.01839046       0.00605198       0.00439702       0.00858175
Au      -1.97101285      -1.43202466      -1.44853309       0.00292831      -0.02173574      -0.01579194      -0.00019858
Au      -1.97101285      -1.43202466       1.44853309       0.00292831      -0.02173574      -0.01579194       0.00019858
Au      -1.98255620      -1.44041140       4.35216934       0.01839046       0.00605198       0.00439702      -0.00858175
Au      -1.94856857      -1.41571794       7.15569072       0.29409838      -0.01329434      -0.00965891       0.00297047
Au      -1.94856857       1.41571794      -7.15569072       0.29409838      -0.01329434       0.00965891      -0.00297047
Au      -1.98255620       1.44041140      -4.35216934       0.01839046       0.00605198      -0.00439702       0.00858175
Au      -1.97101285       1.43202466      -1.44853309       0.00292831      -0.02173574       0.01579194      -0.00019858
Au      -1.97101285       1.43202466       1.44853309       0.00292831      -0.02173574       0.01579194       0.00019858
Au      -1.98255620       1.44041140       4.35216934       0.01839046       0.00605198      -0.00439702      -0.00858175
Au      -1.94856857       1.41571794       7.15569072       0.29409838      -0.01329434       0.00965891       0.00297047
Au      -1.68080079       9.78937089      -1.49346537       0.22884475       0.00405954      -0.00242118       0.00598464
Au      -1.68080079       9.78937089       1.49346537       0.22884475       0.00405954      -0.00242118      -0.00598464
Au      -1.68080079      -9.78937089      -1.49346537       0.22884475       0.00405954       0.00242118       0.00598464
Au      -1.68080079      -9.78937089       1.49346537       0.22884475       0.00405954       0.00242118      -0.00598464
Au      -1.22177929       3.76025002      -5.78093207       0.21422295       0.00077162      -0.00237482       0.00832999
Au      -1.22758057       3.77810450      -2.91979344       0.00523092      -0.00255282       0.00785677       0.00939082
Au      -1.22421814       3.76775602       0.00000000       0.00140284      -0.00350225       0.01077882       0.00000000
Au      -1.22758057       3.77810450       2.91979344       0.00523092      -0.00255282       0.00785677      -0.00939082
Au      -1.22177929       3.76025002       5.78093207       0.21422295       0.00077162      -0.00237482      -0.00832999
Au      -1.22177929      -3.76025002      -5.78093207       0.21422295       0.00077162       0.00237482       0.00832999
Au      -1.22758057      -3.77810450      -2.91979344       0.00523092      -0.00255282      -0.00785677       0.00939082
Au      -1.22421814      -3.76775602       0.00000000       0.00140284      -0.00350225      -0.01077882      -0.00000000
Au      -1.22758057      -3.77810450       2.91979344       0.00523092      -0.00255282      -0.00785677      -0.00939082
Au      -1.22177929      -3.76025002       5.78093207       0.21422295       0.00077162       0.00237482      -0.00832999
Au      -0.88499455     -11.91274999       0.00000000       0.46825771       0.00919775      -0.00056263      -0.00000000
Au      -0.88499455      11.91274999       0.00000000       0.46825771       0.00919775       0.00056263      -0.00000000
Au      -0.46037726      -6.06879636      -4.34540767       0.21430873      -0.01073699      -0.00447162       0.00122540
Au      -0.47507186      -6.09968246      -1.46547983       0.00590011      -0.00861059       0.00427821       0.00250121
Au      -0.47507186      -6.09968246       1.46547983       0.00590011      -0.00861059       0.00427821      -0.00250121
Au      -0.46037726      -6.06879636       4.34540767       0.21430873      -0.01073699      -0.00447162      -0.00122540
Au      -0.46037726       6.06879636      -4.34540767       0.21430873      -0.01073699       0.00447162       0.00122540
Au      -0.47507186       6.09968246      -1.46547983       0.00590011      -0.00861059      -0.00427821       0.00250121
Au      -0.47507186       6.09968246       1.46547983       0.00590011      -0.00861059      -0.00427821      -0.00250121
Au      -0.46037726       6.06879636       4.34540767       0.21430873      -0.01073699       0.00447162      -0.00122540
Au      -0.00000000       0.00000000      -8.49468870       0.47694241       0.00000000      -0.00000000       0.02894039
Au      -0.00000000       0.00000000      -5.76063111       0.06753482      -0.00000000       0.00000000      -0.03260171
Au      -0.00000000       0.00000000      -2.88638533       0.00557964      -0.00000000      -0.00000000      -0.00297127
Au      -0.00000000      -0.00000000       0.00000000       0.00994845      -0.00000000       0.00000000       0.00000000
Au      -0.00000000       0.00000000       2.88638533       0.00557964       0.00000000      -0.00000000       0.00297127
Au      -0.00000000       0.00000000       5.76063111       0.06753482      -0.00000000      -0.00000000       0.03260171
Au       0.00000000      -0.00000000       8.49468870       0.47694241      -0.00000000      -0.00000000      -0.02894039
Au       0.29383699      -8.36675321      -2.91294079       0.21507629      -0.01068267       0.00513598       0.00286201
Au       0.27421391      -8.42316398       0.00000000       0.00453982      -0.00785491      -0.00148437      -0.00000000
Au       0.29383699      -8.36675321       2.91294079       0.21507629      -0.01068267       0.00513598      -0.00286201
Au       0.29383699       8.36675321      -2.91294079       0.21507629      -0.01068267      -0.00513598       0.00286201
Au       0.27421391       8.42316398      -0.00000000       0.00453982      -0.00785491       0.00148437      -0.00000000
Au       0.29383699       8.36675321       2.91294079       0.21507629      -0.01068267      -0.00513598      -0.00286201
Au       0.74428697      -2.29067974      -7.15569072       0.29409838       0.00507799      -0.01562844      -0.00297047
Au       0.75726908      -2.33063460      -4.35216934       0.01839046      -0.00231165       0.00711453       0.00858175
Au       0.75285992      -2.31706457      -1.44853309       0.00292831       0.00830231      -0.02555190      -0.00019858
Au       0.75285992      -2.31706457       1.44853309       0.00292831       0.00830231      -0.02555190       0.00019858
Au       0.75726908      -2.33063460       4.35216934       0.01839046      -0.00231165       0.00711453      -0.00858175
Au       0.74428697      -2.29067974       7.15569072       0.29409838       0.00507799      -0.01562844       0.00297047
Au       0.74428697       2.29067974      -7.15569072       0.29409838       0.00507799       0.01562844      -0.00297047
Au       0.75726908       2.33063460      -4.35216934       0.01839046      -0.00231165      -0.00711453       0.00858175
Au       0.75285992       2.31706457      -1.44853309       0.00292831       0.00830231       0.02555190      -0.00019858
Au       0.75285992       2.31706457       1.44853309       0.00292831       0.00830231       0.02555190       0.00019858
Au       0.75726908       2.33063460       4.35216934       0.01839046      -0.00231165      -0.00711453      -0.00858175
Au       0.74428697       2.29067974       7.15569072       0.29409838       0.00507799       0.01562844       0.00297047
Au       1.03322011     -10.66735097      -1.48527286       0.22711320       0.00634258       0.00865655       0.00228017
Au       1.03322011     -10.66735097       1.48527286       0.22711320       0.00634258       0.00865655      -0.00228017
Au       1.03322011      10.66735097      -1.48527286       0.22711320       0.00634258      -0.00865655       0.00228017
Au       1.03322011      10.66735097       1.48527286       0.22711320       0.00634258      -0.00865655      -0.00228017
Au       1.49527512      -4.60198361      -5.72169639       0.29605253       0.00142874      -0.00439722       0.00212887
Au       1.50764171      -4.64004406      -2.90482077       0.01875699      -0.00005785       0.00017805       0.00110884
Au       1.50384362      -4.62835476       0.00000000       0.00183985       0.00634620      -0.01953160       0.00000000
Au       1.50764171      -4.64004406       2.90482077       0.01875699      -0.00005785       0.00017805      -0.00110884
Au       1.49527512      -4.60198361       5.72169639       0.29605253       0.00142874      -0.00439722      -0.00212887
Au       1.49527512       4.60198361      -5.72169639       0.29605253       0.00142874       0.00439722       0.00212887
Au       1.50764171       4.64004406      -2.90482077       0.01875699      -0.00005785      -0.00017805       0.00110884
Au       1.50384362       4.62835476       0.00000000       0.00183985       0.00634620       0.01953160       0.00000000
Au       1.50764171       4.64004406       2.90482077       0.01875699      -0.00005785      -0.00017805      -0.00110884
Au       1.49527512       4.60198361       5.72169639       0.29605253       0.00142874       0.00439722      -0.00212887
Au       1.82469416     -12.80346559       0.00000000       0.46318233       0.00098628      -0.00310834      -0.00000000
Au       1.82469416      12.80346559      -0.00000000       0.46318233       0.00098628       0.00310834       0.00000000
Au       2.24430994      -6.90727574      -4.29048596       0.29471715      -0.00124761       0.00383975      -0.00253498
Au       2.25852567      -6.95102728      -1.45268319       0.01521221       0.00242357      -0.00745897      -0.00646711
Au       2.25852567      -6.95102728       1.45268319       0.01521221       0.00242357      -0.00745897       0.00646711
Au       2.24430994      -6.90727574       4.29048596       0.29471715      -0.00124761       0.00383975       0.00253498
Au       2.24430994       6.90727574      -4.29048596       0.29471715      -0.00124761      -0.00383975      -0.00253498
Au       2.25852567       6.95102728      -1.45268319       0.01521221       0.00242357       0.00745897      -0.00646711
Au       2.25852567       6.95102728       1.45268319       0.01521221       0.00242357       0.00745897       0.00646711
Au       2.24430994       6.90727574       4.29048596       0.29471715      -0.00124761      -0.00383975       0.00253498
Au       2.40856321      -0.00000000      -7.15569072       0.29409838       0.01643271       0.00000000      -0.00297047
Au       2.45057424       0.00000000      -4.35216934       0.01839046      -0.00748065       0.00000000       0.00858175
Au       2.43630587       0.00000000      -1.44853309       0.00292831       0.02686685       0.00000000      -0.00019858
Au       2.43630587      -0.00000000       1.44853309       0.00292831       0.02686685      -0.00000000       0.00019858
Au       2.45057424      -0.00000000       4.35216934       0.01839046      -0.00748065       0.00000000      -0.00858175
Au       2.40856321      -0.00000000       7.15569072       0.29409838       0.01643271      -0.00000000       0.00297047
Au       2.98834654      -9.19718495      -2.86394066       0.29486276      -0.00162703       0.00500747      -0.01676950
Au       3.01447828      -9.27761019       0.00000000       0.01210153      -0.00009108       0.00028032      -0.00000000
Au       2.98834654      -9.19718495       2.86394066       0.29486276      -0.00162703       0.00500747       0.01676950
Au       2.98834654       9.19718495      -2.86394066       0.29486276      -0.00162703      -0.00500747      -0.01676950
Au       3.01447828       9.27761019       0.00000000       0.01210153      -0.00009108      -0.00028032      -0.00000000
Au       2.98834654       9.19718495       2.86394066       0.29486276      -0.00162703      -0.00500747       0.01676950
Au       3.19865972      -2.32396232      -5.78093207       0.21422295      -0.00202014       0.00146772       0.00832999
Au       3.21384765      -2.33499699      -2.91979344       0.00523092       0.00668337      -0.00485575       0.00939082
Au       3.20504470      -2.32860128       0.00000000       0.00140284       0.00916901      -0.00666168      -0.00000000
Au       3.21384765      -2.33499699       2.91979344       0.00523092       0.00668337      -0.00485575      -0.00939082
Au       3.19865972      -2.32396232       5.78093207       0.21422295      -0.00202014       0.00146772      -0.00832999
Au       3.19865972       2.32396232      -5.78093207       0.21422295      -0.00202014      -0.00146772       0.00832999
Au       3.21384765       2.33499699      -2.91979344       0.00523092       0.00668337       0.00485575       0.00939082
Au       3.20504470       2.32860128      -0.00000000       0.00140284       0.00916901       0.00666168       0.00000000
Au       3.21384765       2.33499699       2.91979344       0.00523092       0.00668337       0.00485575      -0.00939082
Au       3.19865972       2.32396232       5.78093207       0.21422295      -0.00202014      -0.00146772      -0.00832999
Au       3.73675763     -11.50055745      -1.48333946       0.32099266       0.00080269      -0.00247042      -0.00305924
Au       3.73675763     -11.50055745       1.48333946       0.32099266       0.00080269      -0.00247042       0.00305924
Au       3.73675763      11.50055745      -1.48333946       0.32099266       0.00080269       0.00247042      -0.00305924
Au       3.73675763      11.50055745       1.48333946       0.32099266       0.00080269       0.00247042       0.00305924
Au       3.93960202      -4.63915643      -4.34540767       0.21430873       0.01131476       0.00269343       0.00122540
Au       3.96964461      -4.65550654      -1.46547983       0.00590011       0.00445145       0.00852232       0.00250121
Au       3.96964461      -4.65550654       1.46547983       0.00590011       0.00445145       0.00852232      -0.00250121
Au       3.93960202      -4.63915643       4.34540767       0.21430873       0.01131476       0.00269343      -0.00122540
Au       3.93960202       4.63915643      -4.34540767       0.21430873       0.01131476      -0.00269343       0.00122540
Au       3.96964461       4.65550654      -1.46547983       0.00590011       0.00445145      -0.00852232       0.00250121
Au       3.96964461       4.65550654       1.46547983       0.00590011       0.00445145      -0.00852232      -0.00250121
Au       3.93960202       4.63915643       4.34540767       0.21430873       0.01131476      -0.00269343      -0.00122540
Au       4.41008789     -13.57285489       0.00000000       0.68924314      -0.00273451       0.00841596      -0.00000000
Au       4.41008789      13.57285489       0.00000000       0.68924314      -0.00273451      -0.00841596       0.00000000
Au       4.68013503      -6.94155858      -2.91294079       0.21507629       0.00562360       0.01043421       0.00286201
Au       4.72916785      -6.97566169       0.00000000       0.00453982       0.00722725       0.00341612       0.00000000
Au       4.68013503      -6.94155858       2.91294079       0.21507629       0.00562360       0.01043421      -0.00286201
Au       4.68013503       6.94155858      -2.91294079       0.21507629       0.00562360      -0.01043421       0.00286201
Au       4.72916785       6.97566169      -0.00000000       0.00453982       0.00722725      -0.00341612       0.00000000
Au       4.68013503       6.94155858       2.91294079       0.21507629       0.00562360      -0.01043421      -0.00286201
Au       4.83881192      -0.00000000      -5.72169639       0.29605253       0.00462351       0.00000000       0.00212887
Au       4.87883104      -0.00000000      -2.90482077       0.01875699      -0.00018722      -0.00000000       0.00110884
Au       4.86654019       0.00000000       0.00000000       0.00183985       0.02053674       0.00000000       0.00000000
Au       4.87883104       0.00000000       2.90482077       0.01875699      -0.00018722      -0.00000000      -0.00110884
Au       4.83881192      -0.00000000       5.72169639       0.29605253       0.00462351       0.00000000      -0.00212887
Au       5.43421896      -9.23737976      -1.48527286       0.22711320      -0.01021944       0.00327522       0.00228017
Au       5.43421896      -9.23737976       1.48527286       0.22711320      -0.01021944       0.00327522      -0.00228017
Au       5.43421896       9.23737976      -1.48527286       0.22711320      -0.01021944      -0.00327522       0.00228017
Au       5.43421896       9.23737976       1.48527286       0.22711320      -0.01021944      -0.00327522      -0.00228017
Au       5.62950393       2.31320600      -4.34540767       0.21430873       0.00093485       0.01159329       0.00122540
Au       5.65433747       2.33672573      -1.46547983       0.00590011      -0.00672964       0.00686712       0.00250121
Au       5.65433747       2.33672573       1.46547983       0.00590011      -0.00672964       0.00686712      -0.00250121
Au       5.62950393       2.31320600       4.34540767       0.21430873       0.00093485       0.01159329      -0.00122540
Au       5.62950393      -2.31320600      -4.34540767       0.21430873       0.00093485      -0.01159329       0.00122540
Au       5.65433747      -2.33672573      -1.46547983       0.00590011      -0.00672964      -0.00686712       0.00250121
Au       5.65433747      -2.33672573       1.46547983       0.00590011      -0.00672964      -0.00686712      -0.00250121
Au       5.62950393      -2.31320600       4.34540767       0.21430873       0.00093485      -0.01159329      -0.00122540
Au       6.04947966     -11.43074957       0.00000000       0.46318233       0.00102912      -0.00309442       0.00000000