23
Properties=species:S:1:pos:R:3:energies:R:1:forces:R:3 energy=9.916531346119195 free_energy=9.916531346119195 pbc="F F F"
Au      -3.70015969      -2.68832338       0.00000000       0.68870848      -0.01240198      -0.00901057      -0.00000000
Au      -3.77882622       0.00000000      -0.00000000       0.46030829       0.00683049      -0.00000000       0.00000000
Au      -3.70015969       2.68832338       0.00000000       0.68870848      -0.01240198       0.00901057      -0.00000000
Au      -1.92817372      -1.40090021      -1.48103299       0.31781310      -0.01405737      -0.01021328      -0.00346588
Au      -1.92817372      -1.40090021       1.48103299       0.31781310      -0.01405737      -0.01021328       0.00346588
Au      -1.92817372       1.40090021      -1.48103299       0.31781310      -0.01405737       0.01021328      -0.00346588
Au      -1.92817372       1.40090021       1.48103299       0.31781310      -0.01405737       0.01021328       0.00346588
Au      -1.16772152       3.59387730      -0.00000000       0.46030829       0.00211074      -0.00649618      -0.00000000
Au      -1.16772152      -3.59387730       0.00000000       0.46030829       0.00211074       0.00649618       0.00000000
Au      -0.00000000       0.00000000      -2.83311876       0.47974889       0.00000000      -0.00000000       0.02588993
Au      -0.00000000       0.00000000       0.00000000       0.03381875       0.00000000      -0.00000000      -0.00000000
Au      -0.00000000      -0.00000000       2.83311876       0.47974889       0.00000000       0.00000000      -0.02588993
Au       0.73649683      -2.26670416      -1.48103299       0.31781310       0.00536944      -0.01652543      -0.00346588
Au       0.73649683      -2.26670416       1.48103299       0.31781310       0.00536944      -0.01652543       0.00346588
Au       0.73649683       2.26670416      -1.48103299       0.31781310       0.00536944       0.01652543      -0.00346588
Au       0.73649683       2.26670416       1.48103299       0.31781310       0.00536944       0.01652543       0.00346588
Au       1.41333524      -4.34979859      -0.00000000       0.68870848       0.00473714      -0.01457941       0.00000000
Au       1.41333524       4.34979859       0.00000000       0.68870848       0.00473714       0.01457941      -0.00000000
Au       2.38335379      -0.00000000      -1.48103299       0.31781310       0.01737587       0.00000000      -0.00346588
Au       2.38335379       0.00000000       1.48103299       0.31781310       0.01737587      -0.00000000       0.00346588
Au       3.05713463      -2.22113832      -0.00000000       0.46030829      -0.00552598       0.00401486       0.00000000
Au       3.05713463       2.22113832       0.00000000       0.46030829      -0.00552598      -0.00401486      -0.00000000
Au       4.57364890       0.00000000      -0.00000000       0.68870848       0.01532969      -0.00000000       0.00000000
