19
Properties=species:S:1:pos:R:3:energies:R:1:forces:R:3 energy=8.665124479233082 free_energy=8.665124479233082 pbc="F F F"
Au      -3.75337214       0.00000000       0.00000000       0.66845956      -0.00237443      -0.00000000      -0.00000000
Au       3.75337214      -0.00000000      -0.00000000       0.66845956       0.00237443       0.00000000       0.00000000
Au       0.00000000      -3.75337214       0.00000000       0.66845956      -0.00000000      -0.00237443      -0.00000000
Au       0.00000000       3.75337214      -0.00000000       0.66845956      -0.00000000       0.00237443      -0.00000000
Au       0.00000000       0.00000000      -3.75337214       0.66845956      -0.00000000       0.00000000      -0.00237443
Au       0.00000000       0.00000000       3.75337214       0.66845956       0.00000000       0.00000000       0.00237443
Au      -1.98390720      -1.98390720       0.00000000       0.38503218       0.03236711       0.03236711       0.00000000
Au       1.98390720      -1.98390720      -0.00000000       0.38503218      -0.03236711       0.03236711      -0.00000000
Au      -1.98390720       1.98390720       0.00000000       0.38503218       0.03236711      -0.03236711      -0.00000000
Au       1.98390720       1.98390720      -0.00000000       0.38503218      -0.03236711      -0.03236711       0.00000000
Au      -1.98390720       0.00000000      -1.98390720       0.38503218       0.03236711      -0.00000000       0.03236711
Au       1.98390720       0.00000000      -1.98390720       0.38503218      -0.03236711      -0.00000000       0.03236711
Au       0.00000000      -1.98390720      -1.98390720       0.38503218       0.00000000       0.03236711       0.03236711
Au       0.00000000       1.98390720      -1.98390720       0.38503218      -0.00000000      -0.03236711       0.03236711
Au      -1.98390720       0.00000000       1.98390720       0.38503218       0.03236711       0.00000000      -0.03236711
Au       1.98390720       0.00000000       1.98390720       0.38503218      -0.03236711       0.00000000      -0.03236711
Au      -0.00000000      -1.98390720       1.98390720       0.38503218      -0.00000000       0.03236711      -0.03236711
Au       0.00000000       1.98390720       1.98390720       0.38503218       0.00000000      -0.03236711      -0.03236711
Au       0.00000000       0.00000000      -0.00000000       0.03398104      -0.00000000      -0.00000000       0.00000000
