85
Properties=species:S:1:pos:R:3:energies:R:1:forces:R:3 energy=23.017913778012634 free_energy=23.017913778012634 pbc="F F F"
Au      -7.65166620       0.00000000      -0.00000000       0.66217575       0.04088014      -0.00000000       0.00000000
Au       7.65166620      -0.00000000       0.00000000       0.66217575      -0.04088014       0.00000000      -0.00000000
Au       0.00000000      -7.65166620       0.00000000       0.66217575       0.00000000       0.04088014      -0.00000000
Au       0.00000000       7.65166620       0.00000000       0.66217575      -0.00000000      -0.04088014      -0.00000000
Au      -0.00000000       0.00000000      -7.65166620       0.66217575      -0.00000000       0.00000000       0.04088014
Au       0.00000000       0.00000000       7.65166620       0.66217575      -0.00000000       0.00000000      -0.04088014
Au      -2.00500763      -5.91024434       0.00000000       0.37813624       0.02759921      -0.00206821      -0.00000000
Au       2.00500763      -5.91024434      -0.00000000       0.37813624      -0.02759921      -0.00206821       0.00000000
Au      -2.00500763       5.91024434      -0.00000000       0.37813624       0.02759921       0.00206821       0.00000000
Au       2.00500763       5.91024434      -0.00000000       0.37813624      -0.02759921       0.00206821      -0.00000000
Au      -2.00500763       0.00000000      -5.91024434       0.37813624       0.02759921       0.00000000      -0.00206821
Au       2.00500763       0.00000000      -5.91024434       0.37813624      -0.02759921       0.00000000      -0.00206821
Au       0.00000000      -2.00500763      -5.91024434       0.37813624      -0.00000000       0.02759921      -0.00206821
Au       0.00000000       2.00500763      -5.91024434       0.37813624      -0.00000000      -0.02759921      -0.00206821
Au      -2.00500763      -0.00000000       5.91024434       0.37813624       0.02759921      -0.00000000       0.00206821
Au       2.00500763       0.00000000       5.91024434       0.37813624      -0.02759921      -0.00000000       0.00206821
Au       0.00000000      -2.00500763       5.91024434       0.37813624      -0.00000000       0.02759921       0.00206821
Au      -0.00000000       2.00500763       5.91024434       0.37813624       0.00000000      -0.02759921       0.00206821
Au      -3.96496553      -3.96496553       0.00000000       0.37328848       0.01693567       0.01693567      -0.00000000
Au       3.96496553      -3.96496553      -0.00000000       0.37328848      -0.01693567       0.01693567      -0.00000000
Au      -3.96496553       3.96496553       0.00000000       0.37328848       0.01693567      -0.01693567      -0.00000000
Au       3.96496553       3.96496553      -0.00000000       0.37328848      -0.01693567      -0.01693567      -0.00000000
Au      -3.96496553      -0.00000000      -3.96496553       0.37328848       0.01693567      -0.00000000       0.01693567
Au       3.96496553      -0.00000000      -3.96496553       0.37328848      -0.01693567       0.00000000       0.01693567
Au       0.00000000      -3.96496553      -3.96496553       0.37328848      -0.00000000       0.01693567       0.01693567
Au      -0.00000000       3.96496553      -3.96496553       0.37328848      -0.00000000      -0.01693567       0.01693567
Au      -3.96496553      -0.00000000       3.96496553       0.37328848       0.01693567      -0.00000000      -0.01693567
Au       3.96496553      -0.00000000       3.96496553       0.37328848      -0.01693567       0.00000000      -0.01693567
Au      -0.00000000      -3.96496553       3.96496553       0.37328848       0.00000000       0.01693567      -0.01693567
Au       0.00000000       3.96496553       3.96496553       0.37328848      -0.00000000      -0.01693567      -0.01693567
Au      -5.91024434      -2.00500763       0.00000000       0.37813624      -0.00206821       0.02759921      -0.00000000
Au       5.91024434      -2.00500763      -0.00000000       0.37813624       0.00206821       0.02759921      -0.00000000
Au      -5.91024434       2.00500763       0.00000000       0.37813624      -0.00206821      -0.02759921      -0.00000000
Au       5.91024434       2.00500763      -0.00000000       0.37813624       0.00206821      -0.02759921       0.00000000
Au      -5.91024434      -0.00000000      -2.00500763       0.37813624      -0.00206821      -0.00000000       0.02759921
Au       5.91024434       0.00000000      -2.00500763       0.37813624       0.00206821       0.00000000       0.02759921
Au      -0.00000000      -5.91024434      -2.00500763       0.37813624       0.00000000      -0.00206821       0.02759921
Au       0.00000000       5.91024434      -2.00500763       0.37813624      -0.00000000       0.00206821       0.02759921
Au      -5.91024434       0.00000000       2.00500763       0.37813624      -0.00206821      -0.00000000      -0.02759921
Au       5.91024434      -0.00000000       2.00500763       0.37813624       0.00206821      -0.00000000      -0.02759921
Au       0.00000000      -5.91024434       2.00500763       0.37813624       0.00000000      -0.00206821      -0.02759921
Au      -0.00000000       5.91024434       2.00500763       0.37813624       0.00000000       0.00206821      -0.02759921
Au      -4.02219710      -2.03562072      -2.03562072       0.21593717      -0.00545432       0.00198252       0.00198252
Au      -2.03562072      -4.02219710      -2.03562072       0.21593717       0.00198252      -0.00545432       0.00198252
Au      -2.03562072      -2.03562072      -4.02219710       0.21593717       0.00198252       0.00198252      -0.00545432
Au      -4.02219710      -2.03562072       2.03562072       0.21593717      -0.00545432       0.00198252      -0.00198252
Au      -2.03562072      -4.02219710       2.03562072       0.21593717       0.00198252      -0.00545432      -0.00198252
Au      -2.03562072      -2.03562072       4.02219710       0.21593717       0.00198252       0.00198252       0.00545432
Au       4.02219710      -2.03562072      -2.03562072       0.21593717       0.00545432       0.00198252       0.00198252
Au       2.03562072      -4.02219710      -2.03562072       0.21593717      -0.00198252      -0.00545432       0.00198252
Au       2.03562072      -2.03562072      -4.02219710       0.21593717      -0.00198252       0.00198252      -0.00545432
Au       4.02219710      -2.03562072       2.03562072       0.21593717       0.00545432       0.00198252      -0.00198252
Au       2.03562072      -4.02219710       2.03562072       0.21593717      -0.00198252      -0.00545432      -0.00198252
Au       2.03562072      -2.03562072       4.02219710       0.21593717      -0.00198252       0.00198252       0.00545432
Au      -4.02219710       2.03562072      -2.03562072       0.21593717      -0.00545432      -0.00198252       0.00198252
Au      -2.03562072       4.02219710      -2.03562072       0.21593717       0.00198252       0.00545432       0.00198252
Au      -2.03562072       2.03562072      -4.02219710       0.21593717       0.00198252      -0.00198252      -0.00545432
Au      -4.02219710       2.03562072       2.03562072       0.21593717      -0.00545432      -0.00198252      -0.00198252
Au      -2.03562072       4.02219710       2.03562072       0.21593717       0.00198252       0.00545432      -0.00198252
Au      -2.03562072       2.03562072       4.02219710       0.21593717       0.00198252      -0.00198252       0.00545432
Au       4.02219710       2.03562072      -2.03562072       0.21593717       0.00545432      -0.00198252       0.00198252
Au       2.03562072       4.02219710      -2.03562072       0.21593717      -0.00198252       0.00545432       0.00198252
Au       2.03562072       2.03562072      -4.02219710       0.21593717      -0.00198252      -0.00198252      -0.00545432
Au       4.02219710       2.03562072       2.03562072       0.21593717       0.00545432      -0.00198252      -0.00198252
Au       2.03562072       4.02219710       2.03562072       0.21593717      -0.00198252       0.00545432      -0.00198252
Au       2.03562072       2.03562072       4.02219710       0.21593717      -0.00198252      -0.00198252       0.00545432
Au      -0.00000000      -4.00798663      -0.00000000       0.03140387       0.00000000      -0.03378445       0.00000000
Au       2.02976576      -2.02976576       0.00000000       0.01049109      -0.00010610       0.00010610      -0.00000000
Au       4.00798663       0.00000000       0.00000000       0.03140387       0.03378445      -0.00000000       0.00000000
Au      -2.02976576      -2.02976576      -0.00000000       0.01049109       0.00010610       0.00010610      -0.00000000
Au      -0.00000000       0.00000000      -0.00000000      -0.00668053      -0.00000000      -0.00000000      -0.00000000
Au       2.02976576       2.02976576      -0.00000000       0.01049109      -0.00010610      -0.00010610      -0.00000000
Au      -4.00798663      -0.00000000       0.00000000       0.03140387      -0.03378445      -0.00000000       0.00000000
Au      -2.02976576       2.02976576      -0.00000000       0.01049109       0.00010610      -0.00010610       0.00000000
Au      -0.00000000       4.00798663       0.00000000       0.03140387       0.00000000       0.03378445       0.00000000
Au       0.00000000      -0.00000000      -4.00798663       0.03140387      -0.00000000       0.00000000      -0.03378445
Au      -0.00000000       0.00000000       4.00798663       0.03140387       0.00000000      -0.00000000       0.03378445
Au       0.00000000      -2.02976576      -2.02976576       0.01049109      -0.00000000       0.00010610       0.00010610
Au       2.02976576      -0.00000000      -2.02976576       0.01049109      -0.00010610       0.00000000       0.00010610
Au      -2.02976576       0.00000000      -2.02976576       0.01049109       0.00010610      -0.00000000       0.00010610
Au       0.00000000       2.02976576      -2.02976576       0.01049109       0.00000000      -0.00010610       0.00010610
Au      -0.00000000      -2.02976576       2.02976576       0.01049109       0.00000000       0.00010610      -0.00010610
Au       2.02976576      -0.00000000       2.02976576       0.01049109      -0.00010610       0.00000000      -0.00010610
Au      -2.02976576      -0.00000000       2.02976576       0.01049109       0.00010610       0.00000000      -0.00010610
Au       0.00000000       2.02976576       2.02976576       0.01049109      -0.00000000      -0.00010610      -0.00010610
